 Entering Gaussian System, Link 0=/soft/gaussian/09-d.01/g09/g09
 Input=O_gaussian.inp
 Output=O_gaussian.out
 Initial command:
 /soft/gaussian/09-d.01/g09/l1.exe "/scratch/sjklipp/Gau-71821.inp" -scrdir="/scratch/sjklipp/"
 Entering Link 1 = /soft/gaussian/09-d.01/g09/l1.exe PID=     71822.
  
 Copyright (c) 1988,1990,1992,1993,1995,1998,2003,2009,2013,
            Gaussian, Inc.  All Rights Reserved.
  
 This is part of the Gaussian(R) 09 program.  It is based on
 the Gaussian(R) 03 system (copyright 2003, Gaussian, Inc.),
 the Gaussian(R) 98 system (copyright 1998, Gaussian, Inc.),
 the Gaussian(R) 94 system (copyright 1995, Gaussian, Inc.),
 the Gaussian 92(TM) system (copyright 1992, Gaussian, Inc.),
 the Gaussian 90(TM) system (copyright 1990, Gaussian, Inc.),
 the Gaussian 88(TM) system (copyright 1988, Gaussian, Inc.),
 the Gaussian 86(TM) system (copyright 1986, Carnegie Mellon
 University), and the Gaussian 82(TM) system (copyright 1983,
 Carnegie Mellon University). Gaussian is a federally registered
 trademark of Gaussian, Inc.
  
 This software contains proprietary and confidential information,
 including trade secrets, belonging to Gaussian, Inc.
  
 This software is provided under written license and may be
 used, copied, transmitted, or stored only in accord with that
 written license.
  
 The following legend is applicable only to US Government
 contracts under FAR:
  
                    RESTRICTED RIGHTS LEGEND
  
 Use, reproduction and disclosure by the US Government is
 subject to restrictions as set forth in subparagraphs (a)
 and (c) of the Commercial Computer Software - Restricted
 Rights clause in FAR 52.227-19.
  
 Gaussian, Inc.
 340 Quinnipiac St., Bldg. 40, Wallingford CT 06492
  
  
 ---------------------------------------------------------------
 Warning -- This program may not be used in any manner that
 competes with the business of Gaussian, Inc. or will provide
 assistance to any competitor of Gaussian, Inc.  The licensee
 of this program is prohibited from giving any competitor of
 Gaussian, Inc. access to this program.  By using this program,
 the user acknowledges that Gaussian, Inc. is engaged in the
 business of creating and licensing software in the field of
 computational chemistry and represents and warrants to the
 licensee that it is not a competitor of Gaussian, Inc. and that
 it will not use this program in any manner prohibited above.
 ---------------------------------------------------------------
  

 Cite this work as:
 Gaussian 09, Revision D.01,
 M. J. Frisch, G. W. Trucks, H. B. Schlegel, G. E. Scuseria, 
 M. A. Robb, J. R. Cheeseman, G. Scalmani, V. Barone, B. Mennucci, 
 G. A. Petersson, H. Nakatsuji, M. Caricato, X. Li, H. P. Hratchian, 
 A. F. Izmaylov, J. Bloino, G. Zheng, J. L. Sonnenberg, M. Hada, 
 M. Ehara, K. Toyota, R. Fukuda, J. Hasegawa, M. Ishida, T. Nakajima, 
 Y. Honda, O. Kitao, H. Nakai, T. Vreven, J. A. Montgomery, Jr., 
 J. E. Peralta, F. Ogliaro, M. Bearpark, J. J. Heyd, E. Brothers, 
 K. N. Kudin, V. N. Staroverov, T. Keith, R. Kobayashi, J. Normand, 
 K. Raghavachari, A. Rendell, J. C. Burant, S. S. Iyengar, J. Tomasi, 
 M. Cossi, N. Rega, J. M. Millam, M. Klene, J. E. Knox, J. B. Cross, 
 V. Bakken, C. Adamo, J. Jaramillo, R. Gomperts, R. E. Stratmann, 
 O. Yazyev, A. J. Austin, R. Cammi, C. Pomelli, J. W. Ochterski, 
 R. L. Martin, K. Morokuma, V. G. Zakrzewski, G. A. Voth, 
 P. Salvador, J. J. Dannenberg, S. Dapprich, A. D. Daniels, 
 O. Farkas, J. B. Foresman, J. V. Ortiz, J. Cioslowski, 
 and D. J. Fox, Gaussian, Inc., Wallingford CT, 2013.
 
 ******************************************
 Gaussian 09:  EM64L-G09RevD.01 24-Apr-2013
                30-Aug-2017 
 ******************************************
 %mem=20GB
 %nproc=10
 Will use up to   10 processors via shared memory.
 Default route:  MaxDisk=100GB
 --------------------------------------------
 #P b2plypd3/cc-pvtz freq int=ultrafine nosym
 --------------------------------------------
 1/10=4,30=1,38=1/1,3;
 2/12=2,15=1,17=6,18=5,40=1/2;
 3/5=16,6=1,11=9,16=1,25=1,30=1,71=2,74=-60,75=-5,140=1/1,2,3;
 4//1;
 5/5=2,38=5,98=1/2;
 8/6=3,8=1,10=1,19=11,30=-1/1;
 9/15=3,16=-3/6;
 11/6=1,8=1,15=11,17=12,24=-1,27=1,28=-2,29=300,31=1,32=6,42=3/1,2,10;
 10/6=2,21=1,31=1/2;
 8/6=4,8=1,10=1,19=11,30=-1/11,4;
 10/5=1,20=4,31=1/2;
 11/12=2,14=11,16=1,17=2,28=-2,31=1,42=3/2,10,12;
 6/7=2,8=2,9=2,10=2/1;
 7/8=1,10=1,12=2,25=1,30=1,44=2/1,2,3,16;
 1/10=4,30=1/3;
 99//99;
 Leave Link    1 at Wed Aug 30 11:30:22 2017, MaxMem=  2684354560 cpu:         0.3
 (Enter /soft/gaussian/09-d.01/g09/l101.exe)
 -
 O
 -
 Symbolic Z-matrix:
 Charge =  0 Multiplicity = 1
 O
 H                    1    r2
 H                    1    r3       2    a3
       Variables:
  r2                    0.9595                   
  r3                    0.9595                   
  a3                  104.21                     
 
 NAtoms=      3 NQM=        3 NQMF=       0 NMMI=      0 NMMIF=      0
                NMic=       0 NMicF=      0.
                    Isotopes and Nuclear Properties:
 (Nuclear quadrupole moments (NQMom) in fm**2, nuclear magnetic moments (NMagM)
  in nuclear magnetons)

  Atom         1           2           3
 IAtWgt=          16           1           1
 AtmWgt=  15.9949146   1.0078250   1.0078250
 NucSpn=           0           1           1
 AtZEff=   0.0000000   0.0000000   0.0000000
 NQMom=    0.0000000   0.0000000   0.0000000
 NMagM=    0.0000000   2.7928460   2.7928460
 AtZNuc=   8.0000000   1.0000000   1.0000000
 Leave Link  101 at Wed Aug 30 11:30:22 2017, MaxMem=  2684354560 cpu:         0.4
 (Enter /soft/gaussian/09-d.01/g09/l103.exe)

 GradGradGradGradGradGradGradGradGradGradGradGradGradGradGradGradGradGrad
 Berny optimization.
 Initialization pass.
                       ----------------------------
                       !    Initial Parameters    !
                       ! (Angstroms and Degrees)  !
 ----------------------                            ----------------------
 !      Name          Value   Derivative information (Atomic Units)     !
 ------------------------------------------------------------------------
 !       r2          0.9595   calculate D2E/DX2 analytically            !
 !       r3          0.9595   calculate D2E/DX2 analytically            !
 !       a3        104.21     calculate D2E/DX2 analytically            !
 ------------------------------------------------------------------------
 Trust Radius=3.00D-01 FncErr=1.00D-07 GrdErr=1.00D-07
 Number of steps in this run=      2 maximum allowed number of steps=      2.
 GradGradGradGradGradGradGradGradGradGradGradGradGradGradGradGradGradGrad

 Leave Link  103 at Wed Aug 30 11:30:22 2017, MaxMem=  2684354560 cpu:         0.2
 (Enter /soft/gaussian/09-d.01/g09/l202.exe)
                          Input orientation:                          
 ---------------------------------------------------------------------
 Center     Atomic      Atomic             Coordinates (Angstroms)
 Number     Number       Type             X           Y           Z
 ---------------------------------------------------------------------
      1          8           0        0.000000    0.000000    0.000000
      2          1           0        0.000000    0.000000    0.959500
      3          1           0        0.930142    0.000000   -0.235535
 ---------------------------------------------------------------------
                    Distance matrix (angstroms):
                    1          2          3
     1  O    0.000000
     2  H    0.959500   0.000000
     3  H    0.959500   1.514355   0.000000
 Symmetry turned off by external request.
 Stoichiometry    H2O
 Framework group  C2V[C2(O),SGV(H2)]
 Deg. of freedom     2
 Full point group                 C2V     NOp   4
 Rotational constants (GHZ):    812.8581695    437.3272392    284.3458391
 Leave Link  202 at Wed Aug 30 11:30:22 2017, MaxMem=  2684354560 cpu:         0.1
 (Enter /soft/gaussian/09-d.01/g09/l301.exe)
 Standard basis: CC-pVTZ (5D, 7F)
 Ernie: Thresh=  0.10000D-02 Tol=  0.10000D-05 Strict=F.
 Ernie:  3 primitive shells out of 42 were deleted.
    58 basis functions,    86 primitive gaussians,    65 cartesian basis functions
     5 alpha electrons        5 beta electrons
       nuclear repulsion energy         9.1736566960 Hartrees.
 IExCor=  419 DFT=T Ex+Corr=B2PLYPD3 ExCW=0 ScaHFX=  0.530000
 ScaDFX=  0.470000  0.470000  0.730000  0.730000 ScalE2=  0.270000  0.270000
 IRadAn=      5 IRanWt=     -1 IRanGd=            0 ICorTp=0 IEmpDi=141
 NAtoms=    3 NActive=    3 NUniq=    3 SFac= 1.00D+00 NAtFMM=   60 NAOKFM=F Big=F
 Integral buffers will be    131072 words long.
 Regular integral format.
 Two-electron integral symmetry is turned off.
 R6Disp:  Grimme-D3(BJ) Dispersion energy=       -0.0002342955 Hartrees.
 Nuclear repulsion after empirical dispersion term =        9.1734224005 Hartrees.
 Leave Link  301 at Wed Aug 30 11:30:22 2017, MaxMem=  2684354560 cpu:         0.3
 (Enter /soft/gaussian/09-d.01/g09/l302.exe)
 NPDir=0 NMtPBC=     1 NCelOv=     1 NCel=       1 NClECP=     1 NCelD=      1
         NCelK=      1 NCelE2=     1 NClLst=     1 CellRange=     0.0.
 One-electron integrals computed using PRISM.
 NBasis=    58 RedAO= T EigKep=  2.54D-03  NBF=    58
 NBsUse=    58 1.00D-06 EigRej= -1.00D+00 NBFU=    58
 Precomputing XC quadrature grid using
 IXCGrd= 4 IRadAn=           5 IRanWt=          -1 IRanGd=           0 AccXCQ= 0.00D+00.
 Generated NRdTot=       0 NPtTot=           0 NUsed=           0 NTot=          32
 NSgBfM=    65    65    65    65    65 MxSgAt=     3 MxSgA2=     3.
 Leave Link  302 at Wed Aug 30 11:30:23 2017, MaxMem=  2684354560 cpu:         1.2
 (Enter /soft/gaussian/09-d.01/g09/l303.exe)
 DipDrv:  MaxL=1.
 Leave Link  303 at Wed Aug 30 11:30:23 2017, MaxMem=  2684354560 cpu:         0.2
 (Enter /soft/gaussian/09-d.01/g09/l401.exe)
 ExpMin= 1.03D-01 ExpMax= 1.53D+04 ExpMxC= 5.22D+02 IAcc=3 IRadAn=         5 AccDes= 0.00D+00
 Harris functional with IExCor=  419 and IRadAn=       5 diagonalized for initial guess.
 HarFok:  IExCor=  419 AccDes= 0.00D+00 IRadAn=         5 IDoV= 1 UseB2=F ITyADJ=14
 ICtDFT=  3500011 ScaDFX=  1.000000  1.000000  1.000000  1.000000
 FoFCou: FMM=F IPFlag=           0 FMFlag=      100000 FMFlg1=           0
         NFxFlg=           0 DoJE=T BraDBF=F KetDBF=T FulRan=T
         wScrn=  0.000000 ICntrl=     500 IOpCl=  0 I1Cent=   200000004 NGrid=           0
         NMat0=    1 NMatS0=      1 NMatT0=    0 NMatD0=    1 NMtDS0=    0 NMtDT0=    0
 Symmetry not used in FoFCou.
 Harris En= -76.4972225872910    
 JPrj=0 DoOrth=F DoCkMO=F.
 Leave Link  401 at Wed Aug 30 11:30:23 2017, MaxMem=  2684354560 cpu:         1.3
 (Enter /soft/gaussian/09-d.01/g09/l502.exe)
 Closed shell SCF:
 Using DIIS extrapolation, IDIIS=  1040.
 Two-electron integral symmetry not used.
 Keep R1 ints in memory in canonical form, NReq=3457515.
 IVT=       32271 IEndB=       32271 NGot=  2684354560 MDV=  2682857674
 LenX=  2682857674 LenY=  2682853008
 Requested convergence on RMS density matrix=1.00D-08 within 128 cycles.
 Requested convergence on MAX density matrix=1.00D-06.
 Requested convergence on             energy=1.00D-06.
 No special actions if energy rises.
 FoFCou: FMM=F IPFlag=           0 FMFlag=           0 FMFlg1=           0
         NFxFlg=           0 DoJE=F BraDBF=F KetDBF=F FulRan=T
         wScrn=  0.000000 ICntrl=     600 IOpCl=  0 I1Cent=           0 NGrid=           0
         NMat0=    1 NMatS0=   1711 NMatT0=    0 NMatD0=    1 NMtDS0=    0 NMtDT0=    0
 Symmetry not used in FoFCou.
 Integral accuracy reduced to 1.0D-05 until final iterations.

 Cycle   1  Pass 0  IDiag  1:
 E= -76.2363997471467    
 DIIS: error= 6.51D-02 at cycle   1 NSaved=   1.
 NSaved= 1 IEnMin= 1 EnMin= -76.2363997471467     IErMin= 1 ErrMin= 6.51D-02
 ErrMax= 6.51D-02  0.00D+00 EMaxC= 1.00D-01 BMatC= 1.47D-01 BMatP= 1.47D-01
 IDIUse=3 WtCom= 3.49D-01 WtEn= 6.51D-01
 Coeff-Com:  0.100D+01
 Coeff-En:   0.100D+01
 Coeff:      0.100D+01
 Gap=     0.317 Goal=   None    Shift=    0.000
 GapD=    0.317 DampG=1.000 DampE=0.500 DampFc=0.5000 IDamp=-1.
 Damping current iteration by 5.00D-01
 RMSDP=4.78D-03 MaxDP=9.62D-02              OVMax= 1.64D-01

 Cycle   2  Pass 0  IDiag  1:
 E= -76.2775950251009     Delta-E=       -0.041195277954 Rises=F Damp=T
 DIIS: error= 1.10D-02 at cycle   2 NSaved=   2.
 NSaved= 2 IEnMin= 2 EnMin= -76.2775950251009     IErMin= 2 ErrMin= 1.10D-02
 ErrMax= 1.10D-02  0.00D+00 EMaxC= 1.00D-01 BMatC= 4.10D-03 BMatP= 1.47D-01
 IDIUse=3 WtCom= 8.90D-01 WtEn= 1.10D-01
 Coeff-Com:  0.187D-01 0.981D+00
 Coeff-En:   0.676D-01 0.932D+00
 Coeff:      0.241D-01 0.976D+00
 Gap=     0.459 Goal=   None    Shift=    0.000
 RMSDP=5.46D-04 MaxDP=1.06D-02 DE=-4.12D-02 OVMax= 8.37D-02

 Cycle   3  Pass 0  IDiag  1:
 E= -76.3236404083646     Delta-E=       -0.046045383264 Rises=F Damp=F
 DIIS: error= 1.74D-03 at cycle   3 NSaved=   3.
 NSaved= 3 IEnMin= 3 EnMin= -76.3236404083646     IErMin= 3 ErrMin= 1.74D-03
 ErrMax= 1.74D-03  0.00D+00 EMaxC= 1.00D-01 BMatC= 8.16D-05 BMatP= 4.10D-03
 IDIUse=3 WtCom= 9.83D-01 WtEn= 1.74D-02
 Coeff-Com: -0.219D-01 0.236D-02 0.102D+01
 Coeff-En:   0.000D+00 0.000D+00 0.100D+01
 Coeff:     -0.215D-01 0.232D-02 0.102D+01
 Gap=     0.462 Goal=   None    Shift=    0.000
 RMSDP=7.55D-05 MaxDP=9.21D-04 DE=-4.60D-02 OVMax= 3.27D-03

 Cycle   4  Pass 0  IDiag  1:
 E= -76.3237083971534     Delta-E=       -0.000067988789 Rises=F Damp=F
 DIIS: error= 2.87D-04 at cycle   4 NSaved=   4.
 NSaved= 4 IEnMin= 4 EnMin= -76.3237083971534     IErMin= 4 ErrMin= 2.87D-04
 ErrMax= 2.87D-04  0.00D+00 EMaxC= 1.00D-01 BMatC= 2.32D-06 BMatP= 8.16D-05
 IDIUse=3 WtCom= 9.97D-01 WtEn= 2.87D-03
 Coeff-Com:  0.121D-02-0.834D-02 0.609D-01 0.946D+00
 Coeff-En:   0.000D+00 0.000D+00 0.000D+00 0.100D+01
 Coeff:      0.121D-02-0.832D-02 0.607D-01 0.946D+00
 Gap=     0.463 Goal=   None    Shift=    0.000
 RMSDP=1.58D-05 MaxDP=3.38D-04 DE=-6.80D-05 OVMax= 4.81D-04

 Cycle   5  Pass 0  IDiag  1:
 E= -76.3237100909738     Delta-E=       -0.000001693820 Rises=F Damp=F
 DIIS: error= 4.45D-05 at cycle   5 NSaved=   5.
 NSaved= 5 IEnMin= 5 EnMin= -76.3237100909738     IErMin= 5 ErrMin= 4.45D-05
 ErrMax= 4.45D-05  0.00D+00 EMaxC= 1.00D-01 BMatC= 4.96D-08 BMatP= 2.32D-06
 IDIUse=1 WtCom= 1.00D+00 WtEn= 0.00D+00
 Coeff-Com:  0.112D-02-0.810D-03-0.399D-01 0.188D-02 0.104D+01
 Coeff:      0.112D-02-0.810D-03-0.399D-01 0.188D-02 0.104D+01
 Gap=     0.463 Goal=   None    Shift=    0.000
 RMSDP=4.10D-06 MaxDP=6.51D-05 DE=-1.69D-06 OVMax= 1.51D-04

 Initial convergence to 1.0D-05 achieved.  Increase integral accuracy.
 Cycle   6  Pass 1  IDiag  1:
 E= -76.3237104824052     Delta-E=       -0.000000391431 Rises=F Damp=F
 DIIS: error= 6.72D-06 at cycle   1 NSaved=   1.
 NSaved= 1 IEnMin= 1 EnMin= -76.3237104824052     IErMin= 1 ErrMin= 6.72D-06
 ErrMax= 6.72D-06  0.00D+00 EMaxC= 1.00D-01 BMatC= 1.59D-09 BMatP= 1.59D-09
 IDIUse=1 WtCom= 1.00D+00 WtEn= 0.00D+00
 Coeff-Com:  0.100D+01
 Coeff:      0.100D+01
 Gap=     0.463 Goal=   None    Shift=    0.000
 RMSDP=4.10D-06 MaxDP=6.51D-05 DE=-3.91D-07 OVMax= 3.46D-05

 Cycle   7  Pass 1  IDiag  1:
 E= -76.3237104841319     Delta-E=       -0.000000001727 Rises=F Damp=F
 DIIS: error= 6.99D-06 at cycle   2 NSaved=   2.
 NSaved= 2 IEnMin= 2 EnMin= -76.3237104841319     IErMin= 1 ErrMin= 6.72D-06
 ErrMax= 6.99D-06  0.00D+00 EMaxC= 1.00D-01 BMatC= 1.19D-09 BMatP= 1.59D-09
 IDIUse=1 WtCom= 1.00D+00 WtEn= 0.00D+00
 Coeff-Com:  0.454D+00 0.546D+00
 Coeff:      0.454D+00 0.546D+00
 Gap=     0.463 Goal=   None    Shift=    0.000
 RMSDP=2.50D-07 MaxDP=5.94D-06 DE=-1.73D-09 OVMax= 9.25D-06

 Cycle   8  Pass 1  IDiag  1:
 E= -76.3237104849064     Delta-E=       -0.000000000775 Rises=F Damp=F
 DIIS: error= 1.06D-06 at cycle   3 NSaved=   3.
 NSaved= 3 IEnMin= 3 EnMin= -76.3237104849064     IErMin= 3 ErrMin= 1.06D-06
 ErrMax= 1.06D-06  0.00D+00 EMaxC= 1.00D-01 BMatC= 3.71D-11 BMatP= 1.19D-09
 IDIUse=1 WtCom= 1.00D+00 WtEn= 0.00D+00
 Coeff-Com: -0.135D+00 0.109D-01 0.112D+01
 Coeff:     -0.135D+00 0.109D-01 0.112D+01
 Gap=     0.463 Goal=   None    Shift=    0.000
 RMSDP=1.41D-07 MaxDP=2.18D-06 DE=-7.75D-10 OVMax= 6.44D-06

 Cycle   9  Pass 1  IDiag  1:
 E= -76.3237104849775     Delta-E=       -0.000000000071 Rises=F Damp=F
 DIIS: error= 1.74D-07 at cycle   4 NSaved=   4.
 NSaved= 4 IEnMin= 4 EnMin= -76.3237104849775     IErMin= 4 ErrMin= 1.74D-07
 ErrMax= 1.74D-07  0.00D+00 EMaxC= 1.00D-01 BMatC= 1.27D-12 BMatP= 3.71D-11
 IDIUse=1 WtCom= 1.00D+00 WtEn= 0.00D+00
 Coeff-Com: -0.465D-01-0.223D-01 0.193D+00 0.875D+00
 Coeff:     -0.465D-01-0.223D-01 0.193D+00 0.875D+00
 Gap=     0.463 Goal=   None    Shift=    0.000
 RMSDP=2.14D-08 MaxDP=3.25D-07 DE=-7.11D-11 OVMax= 8.24D-07

 Cycle  10  Pass 1  IDiag  1:
 E= -76.3237104849792     Delta-E=       -0.000000000002 Rises=F Damp=F
 DIIS: error= 1.62D-08 at cycle   5 NSaved=   5.
 NSaved= 5 IEnMin= 5 EnMin= -76.3237104849792     IErMin= 5 ErrMin= 1.62D-08
 ErrMax= 1.62D-08  0.00D+00 EMaxC= 1.00D-01 BMatC= 1.06D-14 BMatP= 1.27D-12
 IDIUse=1 WtCom= 1.00D+00 WtEn= 0.00D+00
 Coeff-Com:  0.752D-02 0.471D-02-0.355D-01-0.133D+00 0.116D+01
 Coeff:      0.752D-02 0.471D-02-0.355D-01-0.133D+00 0.116D+01
 Gap=     0.463 Goal=   None    Shift=    0.000
 RMSDP=1.89D-09 MaxDP=2.05D-08 DE=-1.76D-12 OVMax= 8.45D-08

 SCF Done:  E(RB2PLYPD3) =  -76.3237104850     A.U. after   10 cycles
            NFock= 10  Conv=0.19D-08     -V/T= 2.0033
 KE= 7.607218835710D+01 PE=-1.991947416949D+02 EE= 3.762542045238D+01
 Leave Link  502 at Wed Aug 30 11:30:23 2017, MaxMem=  2684354560 cpu:         4.3
 (Enter /soft/gaussian/09-d.01/g09/l801.exe)
 DoSCS=T DFT=T ScalE2(SS,OS)=  0.270000  0.270000
 ExpMin= 1.03D-01 ExpMax= 1.53D+04 ExpMxC= 5.22D+02 IAcc=3 IRadAn=         5 AccDes= 0.00D+00
 HarFok:  IExCor=  205 AccDes= 0.00D+00 IRadAn=         5 IDoV=-2 UseB2=F ITyADJ=14
 ICtDFT= 12500011 ScaDFX=  1.000000  1.000000  1.000000  1.000000
 Largest valence mixing into a core orbital is  6.71D-05
 Largest core mixing into a valence orbital is  9.78D-06
 Range of M.O.s used for correlation:     2    58
 NBasis=    58 NAE=     5 NBE=     5 NFC=     1 NFV=     0
 NROrb=     57 NOA=     4 NOB=     4 NVA=    53 NVB=    53
 Leave Link  801 at Wed Aug 30 11:30:23 2017, MaxMem=  2684354560 cpu:         0.3
 (Enter /soft/gaussian/09-d.01/g09/l906.exe)
 DoSCS=T DFT=T ScalE2(SS,OS)=  0.270000  0.270000
 Frozen-core derivative calculation, NFC=   1 NFV=   0.
 FulOut=F Deriv=T AODrv=T NAtomX=     3
   MMem=           0  MDisk=           4 MDiskD=           4
  W3Min=       18850 MinDsk=      145420 NBas6D=          65
 NBas2D=        2271    NTT=        2145    LW2=     7400000
    MDV=  2684305470 MDiskM=      206331 NBas2p=        2271
 Disk-based method using ON**2 memory for  4 occupieds at a time.
 Permanent disk used for amplitudes=       84005 words.
 Estimated scratch disk usage=     2621042 words.
 IMap=   1   2   3   4   5
 Actual    scratch disk usage=     2621042 words.
 JobTyp=1 Pass  1:  I=   2 to   5 NPSUse= 10 ParTrn=T ParDer=T DoDerP=T.
 (rs|ai) integrals will be sorted in core.
 Spin components of T(2) and E(2):
     alpha-alpha T2 =       0.1125374035D-01 E2=     -0.1020926114D-01
     alpha-beta  T2 =       0.6591543623D-01 E2=     -0.6305654024D-01
     beta-beta   T2 =       0.1125374035D-01 E2=     -0.1020926114D-01
 The integrals were generated   1 times.
 E2(B2PLYPD3) =    -0.8347506252D-01 E(B2PLYPD3) =    -0.76407185547501D+02
 Leave Link  906 at Wed Aug 30 11:30:24 2017, MaxMem=  2684354560 cpu:        11.2
 (Enter /soft/gaussian/09-d.01/g09/l1101.exe)
 Using compressed Sx but separate Hx and Fx, NAtomX=     3.
 Will process      4 centers per pass.
 R6Disp: Adding Grimme-D3(BJ) dispersion energy 1st derivatives to the gradient.
 Leave Link 1101 at Wed Aug 30 11:30:24 2017, MaxMem=  2684354560 cpu:         1.2
 (Enter /soft/gaussian/09-d.01/g09/l1102.exe)
 Leave Link 1102 at Wed Aug 30 11:30:25 2017, MaxMem=  2684354560 cpu:         0.1
 (Enter /soft/gaussian/09-d.01/g09/l1110.exe)
 Forming Gx(P) for the SCF density, NAtomX=     3.
 Integral derivatives from FoFJK, PRISM(SPDF).
 Do as many integral derivatives as possible in FoFJK.
 G2DrvN: MDV=    2684354432.
 G2DrvN: will do     4 centers at a time, making    1 passes.
 Calling FoFCou, ICntrl=  3107 FMM=F I1Cent=   0 AccDes= 0.00D+00.
 FoFJK:  IHMeth= 1 ICntrl=    3107 DoSepK=F KAlg= 0 I1Cent=   0 FoldK=F
 IRaf=         0 NMat=   1 IRICut=       1 DoRegI=T DoRafI=F ISym2E= 0.
 FoFCou: FMM=F IPFlag=           0 FMFlag=      100000 FMFlg1=           0
         NFxFlg=           0 DoJE=F BraDBF=F KetDBF=F FulRan=T
         wScrn=  0.000000 ICntrl=    3107 IOpCl=  0 I1Cent=           0 NGrid=           0
         NMat0=    1 NMatS0=      1 NMatT0=    0 NMatD0=    1 NMtDS0=    0 NMtDT0=    0
 Symmetry not used in FoFCou.
 End of G2Drv F.D. properties file   721 does not exist.
 End of G2Drv F.D. properties file   722 does not exist.
 End of G2Drv F.D. properties file   788 does not exist.
 Leave Link 1110 at Wed Aug 30 11:30:25 2017, MaxMem=  2684354560 cpu:         7.3
 (Enter /soft/gaussian/09-d.01/g09/l1002.exe)
 Minotr:  Closed shell wavefunction.
          IDoAtm=111
          Frozen-core window.
          Direct CPHF calculation.
          Differentiating once with respect to electric field.
                with respect to dipole field.
          Differentiating once with respect to nuclear coordinates.
          Requested convergence is 1.0D-08 RMS, and 1.0D-07 maximum.
          Secondary convergence is 1.0D-12 RMS, and 1.0D-12 maximum.
          NewPWx=T KeepS1=T KeepF1=T KeepIn=T MapXYZ=F SortEE=F KeepMc=T.
          MDV=    2684354469 using IRadAn=       1.
 Generate precomputed XC quadrature information.
 Keep R1 ints in memory in canonical form, NReq=3436129.
 FoFCou: FMM=F IPFlag=           0 FMFlag=           0 FMFlg1=           0
         NFxFlg=           0 DoJE=F BraDBF=F KetDBF=F FulRan=T
         wScrn=  0.000000 ICntrl=     600 IOpCl=  0 I1Cent=           0 NGrid=           0
         NMat0=    1 NMatS0=   1711 NMatT0=    0 NMatD0=    1 NMtDS0=    0 NMtDT0=    0
 Symmetry not used in FoFCou.
          Solving linear equations simultaneously, MaxMat=       0.
          There are    12 degrees of freedom in the 1st order CPHF.  IDoFFX=6 NUNeed=    12.
      9 vectors produced by pass  0 Test12= 2.21D-15 8.33D-09 XBig12= 2.33D+00 7.39D-01.
 AX will form     9 AO Fock derivatives at one time.
      9 vectors produced by pass  1 Test12= 2.21D-15 8.33D-09 XBig12= 1.65D-01 1.92D-01.
      9 vectors produced by pass  2 Test12= 2.21D-15 8.33D-09 XBig12= 3.78D-03 2.75D-02.
      9 vectors produced by pass  3 Test12= 2.21D-15 8.33D-09 XBig12= 2.29D-05 1.49D-03.
      9 vectors produced by pass  4 Test12= 2.21D-15 8.33D-09 XBig12= 1.79D-07 1.43D-04.
      8 vectors produced by pass  5 Test12= 2.21D-15 8.33D-09 XBig12= 3.40D-10 5.25D-06.
      3 vectors produced by pass  6 Test12= 2.21D-15 8.33D-09 XBig12= 8.90D-13 3.49D-07.
      1 vectors produced by pass  7 Test12= 2.21D-15 8.33D-09 XBig12= 1.13D-15 1.13D-08.
 InvSVY:  IOpt=1 It=  1 EMax= 1.11D-16
 Solved reduced A of dimension    57 with     9 vectors.
 FullF1:  Do perturbations    1 to    12.
 Saving first derivative matrices.
 End of Minotr F.D. properties file   721 does not exist.
 End of Minotr F.D. properties file   722 does not exist.
 End of Minotr F.D. properties file   788 does not exist.
 Leave Link 1002 at Wed Aug 30 11:30:26 2017, MaxMem=  2684354560 cpu:         7.4
 (Enter /soft/gaussian/09-d.01/g09/l811.exe)
 MDV=  2684354560.
 DoSCS=T DFT=T ScalE2(SS,OS)=  0.270000  0.270000
 Form MO integral derivatives with frozen-active canonical formalism.
 MOERI=1 MOERIx=1 NAtoms=     3 NAtomX=     3.
 Discarding MO integrals.
 MO basis two electron integral derivatives will not be stored on disk.
 IAlg= 3 DoFC=T DoPWx=T Debug=F.
 Frozen-core window:  NFC=   1 NFV=   0.
 Reordered first order wavefunction length =       140450
 WUsed=       608626  WInt=         28304  WEnd=       2885632
 Dk804=       744385. Dk1111=           0. Dk1112=     2303380.
 MaxDsk= 13421772800  LAFull=      140450  DskLim= 13421772800.
 NUsed=    9476005.    7743755.    5421630.    5421224.    4492455.    3873276.
 In DefCFB: NBatch=  1 ICI=  5 ICA= 53 LFMax= 53
            Large arrays: LIAPS=     3996200 LIARS=     4220125 words.
 In StABat: MaxSiz= 35 MinSiz= 30 NAtomB=  2
 DoIAMN: NPSUse= 10.
 Leave Link  811 at Wed Aug 30 11:30:27 2017, MaxMem=  2684354560 cpu:         7.1
 (Enter /soft/gaussian/09-d.01/g09/l804.exe)
 Frozen-core window:  NFC=   1 NFV=   0.
 Closed-shell transformation, MDV=  2684354560 ITran=4 ISComp=1.
 Semi-Direct transformation.
 ModeAB=           2 MOrb=             5 LenV=    2684084613
 LASXX=       451880 LTotXX=      451880 LenRXX=      451880
 LTotAB=      475105 MaxLAS=      622050 LenRXY=      622050
 NonZer=      903760 LenScr=     2032128 LnRSAI=           0
 LnScr1=           0 LExtra=      673000 Total=      3779058
 MaxDsk= 13421772800 SrtSym=           F ITran=            4
 DoSDTr:  NPSUse= 10
 JobTyp=0 Pass  1:  I=   1 to   5.
 (rs|ai) integrals will be sorted in core.
 Complete sort for first half transformation.
 First half transformation complete.
 Complete sort for second half transformation.
 Second half transformation complete.
 DoSCS=T DFT=T ScalE2(SS,OS)=  0.270000  0.270000
 Spin components of T(2) and E(2):
     alpha-alpha T2 =       0.1125374035D-01 E2=     -0.1020926114D-01
     alpha-beta  T2 =       0.6591543623D-01 E2=     -0.6305654024D-01
     beta-beta   T2 =       0.1125374035D-01 E2=     -0.1020926114D-01
 E2(B2PLYPD3) =    -0.8347506252D-01 E(B2PLYPD3) =    -0.76407185547501D+02
 Leave Link  804 at Wed Aug 30 11:30:27 2017, MaxMem=  2684354560 cpu:         2.3
 (Enter /soft/gaussian/09-d.01/g09/l1002.exe)
 Minotr:  Closed shell wavefunction.
          Computing MP2/KS-MP2 derivatives.
          Using Z-Vector for PSCF gradient.
          Skipping F1 and S1 gradient terms here.
          IDoAtm=111
          Frozen-core window.
          Direct CPHF calculation.
          Differentiating once with respect to electric field.
                with respect to dipole field.
          Differentiating once with respect to nuclear coordinates.
          Requested convergence is 1.0D-10 RMS, and 1.0D-09 maximum.
          NewPWx=T KeepS1=F KeepF1=F KeepIn=T MapXYZ=F SortEE=F KeepMc=T.
          MDV=    2684354469 using IRadAn=       5.
 Using stored XC quadrature information.
 Keep R1 ints in memory in canonical form, NReq=3435324.
 FoFCou: FMM=F IPFlag=           0 FMFlag=           0 FMFlg1=           0
         NFxFlg=           0 DoJE=F BraDBF=F KetDBF=F FulRan=T
         wScrn=  0.000000 ICntrl=     600 IOpCl=  0 I1Cent=           0 NGrid=           0
         NMat0=    1 NMatS0=   1711 NMatT0=    0 NMatD0=    1 NMtDS0=    0 NMtDT0=    0
 Symmetry not used in FoFCou.
          Solving linear equations separately, MaxMat=       0.
          There are     1 degrees of freedom in the 1st order CPHF.  IDoFFX=0 NUNeed=     1.
 LinEq1:  Iter=  0 NonCon=     1 RMS=1.62D-03 Max=1.00D-02 NDo=     1
 AX will form     1 AO Fock derivatives at one time.
 LinEq1:  Iter=  1 NonCon=     1 RMS=2.58D-04 Max=2.58D-03 NDo=     1
 LinEq1:  Iter=  2 NonCon=     1 RMS=1.84D-04 Max=1.90D-03 NDo=     1
 LinEq1:  Iter=  3 NonCon=     1 RMS=3.08D-05 Max=2.03D-04 NDo=     1
 LinEq1:  Iter=  4 NonCon=     1 RMS=5.91D-06 Max=3.91D-05 NDo=     1
 LinEq1:  Iter=  5 NonCon=     1 RMS=5.16D-07 Max=4.37D-06 NDo=     1
 LinEq1:  Iter=  6 NonCon=     1 RMS=5.59D-08 Max=3.77D-07 NDo=     1
 LinEq1:  Iter=  7 NonCon=     1 RMS=4.08D-09 Max=3.64D-08 NDo=     1
 LinEq1:  Iter=  8 NonCon=     1 RMS=1.98D-10 Max=1.75D-09 NDo=     1
 LinEq1:  Iter=  9 NonCon=     0 RMS=1.03D-11 Max=7.15D-11 NDo=     1
 Linear equations converged to 1.000D-10 1.000D-09 after     9 iterations.
 End of Minotr F.D. properties file   721 does not exist.
 End of Minotr F.D. properties file   722 does not exist.
 End of Minotr F.D. properties file   788 does not exist.
 Leave Link 1002 at Wed Aug 30 11:30:28 2017, MaxMem=  2684354560 cpu:         8.3
 (Enter /soft/gaussian/09-d.01/g09/l1102.exe)
 Use density number 2.
 Symmetrizing basis deriv contribution to polar:
 IMax=3 JMax=2 DiffMx= 0.00D+00
 Leave Link 1102 at Wed Aug 30 11:30:28 2017, MaxMem=  2684354560 cpu:         0.2
 (Enter /soft/gaussian/09-d.01/g09/l1110.exe)
 Forming Gx(P) for generalized density number  2 NAtomX=     3.
 Integral derivatives from FoFJK, PRISM(SPDF).
 Do as many integral derivatives as possible in FoFJK.
 G2DrvN: MDV=    2684354432.
 G2DrvN: will do     4 centers at a time, making    1 passes.
 Calling FoFCou, ICntrl=  3107 FMM=F I1Cent=   0 AccDes= 0.00D+00.
 FoFJK:  IHMeth= 1 ICntrl=    3107 DoSepK=F KAlg= 0 I1Cent=   0 FoldK=F
 IRaf=         0 NMat=   1 IRICut=       1 DoRegI=T DoRafI=F ISym2E= 0.
 FoFCou: FMM=F IPFlag=           0 FMFlag=      100000 FMFlg1=           0
         NFxFlg=           0 DoJE=F BraDBF=F KetDBF=F FulRan=T
         wScrn=  0.000000 ICntrl=    3107 IOpCl=  0 I1Cent=           0 NGrid=           0
         NMat0=    1 NMatS0=      1 NMatT0=    0 NMatD0=    1 NMtDS0=    0 NMtDT0=    0
 Symmetry not used in FoFCou.
 End of G2Drv F.D. properties file   721 does not exist.
 End of G2Drv F.D. properties file   722 does not exist.
 End of G2Drv F.D. properties file   788 does not exist.
 Leave Link 1110 at Wed Aug 30 11:30:29 2017, MaxMem=  2684354560 cpu:         7.9
 (Enter /soft/gaussian/09-d.01/g09/l1112.exe)
 MP22nd: MDV=    2684354560
 DoSCS=T DFT=T ScalE2(SS,OS)=  0.270000  0.270000
 Using stored XC quadrature information.
 This link is doing NAtomX=     3 total of    12 degrees of freedom.
 Using ON3 I/O method in MakUI.
 Frozen-core window:  NFC=   1 NFV=   0.
 Using Ix for Sx.
 Use MO integrals over full window.
 Using OV2 memory method for fx*t*t/D, MaxI=     5 DoOO2=F NP=  10.
 R2 and R3 integrals will be kept in memory, NReq=     6543170.
 FoFCou: FMM=F IPFlag=           0 FMFlag=           0 FMFlg1=           0
         NFxFlg=           0 DoJE=F BraDBF=F KetDBF=F FulRan=T
         wScrn=  0.000000 ICntrl=     600 IOpCl=  0 I1Cent=           0 NGrid=           0
         NMat0=    1 NMatS0=      1 NMatT0=    0 NMatD0=    1 NMtDS0=    0 NMtDT0=    0
 Symmetry not used in FoFCou.
 DD1Dir will call FoFMem   1 times, MxPair=        40
 NAB=    15 NAA=    10 NBB=     0.
 FoFJK:  IHMeth= 1 ICntrl=       0 DoSepK=F KAlg= 0 I1Cent=   0 FoldK=F
 IRaf=         0 NMat=  12 IRICut=      30 DoRegI=T DoRafI=T ISym2E= 0.
 R6Disp: Adding Grimme-D3(BJ) dispersion energy 1st derivatives to the gradient.
 Discarding MO integrals.
 Leave Link 1112 at Wed Aug 30 11:30:31 2017, MaxMem=  2684354560 cpu:        18.7
 (Enter /soft/gaussian/09-d.01/g09/l601.exe)
 Copying SCF densities to generalized density rwf, IOpCl= 0 IROHF=0.

 **********************************************************************

            Population analysis using the SCF density.

 **********************************************************************

 Alpha  occ. eigenvalues --  -19.72021  -1.14818  -0.60268  -0.46588  -0.39058
 Alpha virt. eigenvalues --    0.07271   0.14194   0.43839   0.49252   0.56397
 Alpha virt. eigenvalues --    0.66466   0.69407   0.69553   0.75316   0.84641
 Alpha virt. eigenvalues --    1.00803   1.08525   1.38215   1.41487   1.87683
 Alpha virt. eigenvalues --    1.90111   1.90766   2.00518   2.07085   2.38669
 Alpha virt. eigenvalues --    2.75476   3.17433   3.31171   3.39801   3.47797
 Alpha virt. eigenvalues --    3.55007   3.66940   3.70648   3.77521   3.82265
 Alpha virt. eigenvalues --    3.86243   3.95420   4.12248   4.16851   4.38358
 Alpha virt. eigenvalues --    4.44330   4.65230   4.91185   4.99722   5.26490
 Alpha virt. eigenvalues --    5.78556   6.29585   6.61772   6.62818   6.71286
 Alpha virt. eigenvalues --    6.72260   6.77305   6.86844   6.96338   7.15720
 Alpha virt. eigenvalues --    7.49744   7.97108  12.42430
          Condensed to atoms (all electrons):
               1          2          3
     1  O    7.739982   0.359169   0.359169
     2  H    0.359169   0.457914  -0.046244
     3  H    0.359169  -0.046244   0.457914
 Mulliken charges:
               1
     1  O   -0.458321
     2  H    0.229160
     3  H    0.229160
 Sum of Mulliken charges =   0.00000
 Mulliken charges with hydrogens summed into heavy atoms:
               1
     1  O    0.000000
 APT charges:
               1
     1  O   -0.495714
     2  H    0.247857
     3  H    0.247857
 Sum of APT charges =   0.00000
 APT charges with hydrogens summed into heavy atoms:
               1
     1  O    0.000000
 Electronic spatial extent (au):  <R**2>=             19.3916
 Charge=              0.0000 electrons
 Dipole moment (field-independent basis, Debye):
    X=              1.5580    Y=              0.0000    Z=              1.2127  Tot=              1.9743
 Quadrupole moment (field-independent basis, Debye-Ang):
   XX=             -5.1252   YY=             -7.3258   ZZ=             -4.7873
   XY=              0.0000   XZ=             -0.6672   YZ=              0.0000
 Traceless Quadrupole moment (field-independent basis, Debye-Ang):
   XX=              0.6209   YY=             -1.5797   ZZ=              0.9588
   XY=              0.0000   XZ=             -0.6672   YZ=              0.0000
 Octapole moment (field-independent basis, Debye-Ang**2):
  XXX=              0.2665  YYY=              0.0000  ZZZ=              0.7171  XYY=             -0.4713
  XXY=              0.0000  XXZ=             -0.7929  XZZ=             -0.3638  YZZ=              0.0000
  YYZ=             -0.3668  XYZ=              0.0000
 Hexadecapole moment (field-independent basis, Debye-Ang**3):
 XXXX=             -5.4950 YYYY=             -5.6941 ZZZZ=             -5.3514 XXXY=              0.0000
 XXXZ=             -0.3531 YYYX=              0.0000 YYYZ=              0.0000 ZZZX=              0.0696
 ZZZY=              0.0000 XXYY=             -2.1833 XXZZ=             -2.3285 YYZZ=             -2.2104
 XXYZ=              0.0000 YYXZ=              0.0535 ZZXY=              0.0000
 N-N= 9.173422400464D+00 E-N=-1.991947413295D+02  KE= 7.607218835710D+01
  Exact polarizability:   7.663   0.000   5.493  -0.574   0.000   7.954
 Approx polarizability:   7.948   0.000   5.212  -0.620   0.000   8.262
 No NMR shielding tensors so no spin-rotation constants.
 Leave Link  601 at Wed Aug 30 11:30:31 2017, MaxMem=  2684354560 cpu:         1.1
 (Enter /soft/gaussian/09-d.01/g09/l701.exe)
 Compute integral second derivatives.
 ... and contract with generalized density number  2.
 R6Disp: Adding Grimme-D3(BJ) dispersion energy 2nd derivatives to the Hessian.
 Leave Link  701 at Wed Aug 30 11:30:31 2017, MaxMem=  2684354560 cpu:         1.6
 (Enter /soft/gaussian/09-d.01/g09/l702.exe)
 L702 exits ... SP integral derivatives will be done elsewhere.
 Leave Link  702 at Wed Aug 30 11:30:31 2017, MaxMem=  2684354560 cpu:         0.1
 (Enter /soft/gaussian/09-d.01/g09/l703.exe)
 Compute integral second derivatives, UseDBF=F ICtDFT=           0.
 Integral derivatives from FoFJK, PRISM(SPDF).
 Calling FoFJK, ICntrl=  10100127 FMM=F ISym2X=0 I1Cent= 0 IOpClX= 0 NMat=1 NMatS=1 NMatT=0.
 FoFJK:  IHMeth= 1 ICntrl=10100127 DoSepK=F KAlg= 0 I1Cent=   0 FoldK=F
 IRaf=         0 NMat=   1 IRICut=       1 DoRegI=T DoRafI=F ISym2E= 0.
 FoFCou: FMM=F IPFlag=           0 FMFlag=      100000 FMFlg1=         800
         NFxFlg=           0 DoJE=F BraDBF=F KetDBF=F FulRan=T
         wScrn=  0.000000 ICntrl=10100127 IOpCl=  0 I1Cent=           0 NGrid=           0
         NMat0=    1 NMatS0=      1 NMatT0=    0 NMatD0=    1 NMtDS0=    0 NMtDT0=    0
 Symmetry not used in FoFCou.
 Leave Link  703 at Wed Aug 30 11:30:33 2017, MaxMem=  2684354560 cpu:        16.1
 (Enter /soft/gaussian/09-d.01/g09/l716.exe)
 Dipole        = 5.97934054D-01 2.10578384D-15 4.65395141D-01
 Polarizability= 7.66343231D+00-3.79427601D-12 5.49315555D+00
                -5.74234884D-01-1.74740016D-12 7.95426112D+00
 Full mass-weighted force constant matrix:
 Low frequencies ---   -0.0018   -0.0017   -0.0005   19.0902   23.4860   27.9041
 Low frequencies --- 1651.5076 3829.3552 3937.1004
 Diagonal vibrational polarizability:
        0.4523302       0.0000000       0.3048216
 Harmonic frequencies (cm**-1), IR intensities (KM/Mole), Raman scattering
 activities (A**4/AMU), depolarization ratios for plane and unpolarized
 incident light, reduced masses (AMU), force constants (mDyne/A),
 and normal coordinates:
                      1                      2                      3
                      A                      A                      A
 Frequencies --   1651.5076              3829.3552              3937.1004
 Red. masses --      1.0830                 1.0449                 1.0816
 Frc consts  --      1.7404                 9.0274                 9.8777
 IR Inten    --     68.0916                 3.9231                44.9924
  Atom  AN      X      Y      Z        X      Y      Z        X      Y      Z
     1   8     0.06   0.00   0.04     0.04   0.00   0.03    -0.04   0.00   0.06
     2   1    -0.71   0.00  -0.01     0.05   0.00  -0.70     0.00   0.00  -0.71
     3   1    -0.18   0.00  -0.68    -0.67   0.00   0.22     0.68   0.00  -0.17

 -------------------
 - Thermochemistry -
 -------------------
 Temperature   298.150 Kelvin.  Pressure   1.00000 Atm.
 Atom     1 has atomic number  8 and mass  15.99491
 Atom     2 has atomic number  1 and mass   1.00783
 Atom     3 has atomic number  1 and mass   1.00783
 Molecular mass:    18.01056 amu.
 Principal axes and moments of inertia in atomic units:
                           1         2         3
     Eigenvalues --     2.22024   4.12675   6.34699
           X           -0.61422   0.78914   0.00000
           Y            0.00000   0.00000   1.00000
           Z            0.78914   0.61422   0.00000
 This molecule is an asymmetric top.
 Rotational symmetry number  2.
 Rotational temperatures (Kelvin)     39.01099    20.98837    13.64643
 Rotational constants (GHZ):         812.85817   437.32724   284.34584
 Zero-point vibrational energy      56331.9 (Joules/Mol)
                                   13.46365 (Kcal/Mol)
 Vibrational temperatures:   2376.15  5509.58  5664.60
          (Kelvin)
 
 Zero-point correction=                           0.021456 (Hartree/Particle)
 Thermal correction to Energy=                    0.024291
 Thermal correction to Enthalpy=                  0.025235
 Thermal correction to Gibbs Free Energy=         0.003817
 Sum of electronic and zero-point Energies=            -76.385730
 Sum of electronic and thermal Energies=               -76.382895
 Sum of electronic and thermal Enthalpies=             -76.381951
 Sum of electronic and thermal Free Energies=          -76.403368
 
                     E (Thermal)             CV                S
                      KCal/Mol        Cal/Mol-Kelvin    Cal/Mol-Kelvin
 Total                   15.243              6.005             45.077
 Electronic               0.000              0.000              0.000
 Translational            0.889              2.981             34.608
 Rotational               0.889              2.981             10.463
 Vibrational             13.465              0.044              0.006
                       Q            Log10(Q)             Ln(Q)
 Total Bot       0.175423D-01         -1.755914         -4.043142
 Total V=0       0.129718D+09          8.113001         18.680875
 Vib (Bot)       0.135280D-09         -9.868765        -22.723671
 Vib (V=0)       0.100035D+01          0.000150          0.000346
 Electronic      0.100000D+01          0.000000          0.000000
 Translational   0.300432D+07          6.477746         14.915562
 Rotational      0.431623D+02          1.635105          3.764968
 
                                                                  O
                                                             IR Spectrum
 
     3   3                                                                     1                                                     
     9   8                                                                     6                                                     
     3   2                                                                     5                                                     
     7   9                                                                     2                                                     
 
     X   X                                                                     X                                                     
     X                                                                         X                                                     
     X                                                                         X                                                     
     X                                                                         X                                                     
     X                                                                         X                                                     
     X                                                                         X                                                     
     X                                                                         X                                                     
     X                                                                         X                                                     
     X                                                                         X                                                     
     X                                                                         X                                                     
     X                                                                         X                                                     
     X                                                                         X                                                     
     X                                                                         X                                                     
                                                                               X                                                     
                                                                               X                                                     
                                                                               X                                                     
                                                                               X                                                     
                                                                               X                                                     
                                                                               X                                                     
                                                                               X                                                     
 
 -------------------------------------------------------------------
 Center     Atomic                   Forces (Hartrees/Bohr)
 Number     Number              X              Y              Z
 -------------------------------------------------------------------
      1        8           0.000047481    0.000000000    0.000036872
      2        1          -0.000010331    0.000000000   -0.000035706
      3        1          -0.000037150    0.000000000   -0.000001166
 -------------------------------------------------------------------
 Cartesian Forces:  Max     0.000047481 RMS     0.000026619
 -----------------------------------------------------------------------------------------------
                       Internal Coordinate Forces (Hartree/Bohr or radian)
  Cent   Atom   N1       Length/X         N2         Alpha/Y        N3         Beta/Z          J
 -----------------------------------------------------------------------------------------------
      1  O 
      2  H        1  -0.000036(     1)
      3  H        1  -0.000036(     2)      2   0.000019(     3)
 -----------------------------------------------------------------------------------------------
 Internal  Forces:  Max     0.000035728 RMS     0.000031074
 Force constants in Cartesian coordinates: 
                1             2             3             4             5 
      1  0.542893D+00
      2  0.000000D+00  0.525330D-04
      3 -0.108865D+00  0.000000D+00  0.598033D+00
      4 -0.442947D-01  0.000000D+00 -0.344551D-01  0.494281D-01
      5  0.000000D+00 -0.275613D-04  0.000000D+00  0.000000D+00  0.214380D-04
      6  0.282786D-01  0.000000D+00 -0.526170D+00 -0.178123D-01  0.000000D+00
      7 -0.498599D+00  0.000000D+00  0.143320D+00 -0.513330D-02  0.000000D+00
      8  0.000000D+00 -0.249717D-04  0.000000D+00  0.000000D+00  0.612331D-05
      9  0.805862D-01  0.000000D+00 -0.718625D-01  0.522674D-01  0.000000D+00
                6             7             8             9 
      6  0.541888D+00
      7 -0.104663D-01  0.503732D+00
      8  0.000000D+00  0.000000D+00  0.188484D-04
      9 -0.157183D-01 -0.132854D+00  0.000000D+00  0.875808D-01
 Force constants in internal coordinates: 
                1             2             3 
      1  0.541888D+00
      2 -0.628763D-02  0.541884D+00
      3  0.322867D-01  0.322877D-01  0.162439D+00
 Leave Link  716 at Wed Aug 30 11:30:33 2017, MaxMem=  2684354560 cpu:         0.2
 (Enter /soft/gaussian/09-d.01/g09/l103.exe)

 GradGradGradGradGradGradGradGradGradGradGradGradGradGradGradGradGradGrad
 Berny optimization.
 Search for a local minimum.
 Step number   1 out of a maximum of    2
 All quantities printed in internal units (Hartrees-Bohrs-Radians)
 Second derivative matrix not updated -- analytic derivatives used.
 The second derivative matrix:
                          r2        r3        a3
           r2           0.54189
           r3          -0.00629   0.54188
           a3           0.03229   0.03229   0.16244
 ITU=  0
     Eigenvalues ---    0.15693   0.54110   0.54817
 Angle between quadratic step and forces=  33.36 degrees.
 Linear search not attempted -- first point.
 Variable       Old X    -DE/DX   Delta X   Delta X   Delta X     New X
                                 (Linear)    (Quad)   (Total)
    r2        1.81319  -0.00004   0.00000  -0.00008  -0.00008   1.81312
    r3        1.81319  -0.00004   0.00000  -0.00008  -0.00008   1.81312
    a3        1.81881   0.00002   0.00000   0.00014   0.00014   1.81895
         Item               Value     Threshold  Converged?
 Maximum Force            0.000036     0.000450     YES
 RMS     Force            0.000031     0.000300     YES
 Maximum Displacement     0.000144     0.001800     YES
 RMS     Displacement     0.000104     0.001200     YES
 Predicted change in Energy=-4.034295D-09
 Optimization completed.
    -- Stationary point found.
                       ----------------------------
                       !   Optimized Parameters   !
                       ! (Angstroms and Degrees)  !
 ----------------------                            ----------------------
 !      Name          Value   Derivative information (Atomic Units)     !
 ------------------------------------------------------------------------
 !       r2          0.9595   -DE/DX =    0.0                           !
 !       r3          0.9595   -DE/DX =    0.0                           !
 !       a3        104.21     -DE/DX =    0.0                           !
 ------------------------------------------------------------------------
 GradGradGradGradGradGradGradGradGradGradGradGradGradGradGradGradGradGrad

 Leave Link  103 at Wed Aug 30 11:30:33 2017, MaxMem=  2684354560 cpu:         0.1
 (Enter /soft/gaussian/09-d.01/g09/l9999.exe)
 1\1\ FUSION.LCRC.ANL.GOV-B431\Freq\RB2PLYPD3-FC\CC-pVTZ\H2O1\SJKLIPP\3
 0-Aug-2017\1\\#P b2plypd3/cc-pvtz freq int=ultrafine nosym\\O\\0,1\O\H
 ,1,r2\H,1,r3,2,a3\\r2=0.9595\r3=0.9595\a3=104.21\\Version=EM64L-G09Rev
 D.01\HF=-76.3237105\MP2=-76.4071855\RMSD=1.888e-09\RMSF=2.662e-05\Zero
 Point=0.0214557\Thermal=0.0242909\Dipole=0.5979341,0.,0.4653951\Dipole
 Deriv=-0.3871014,0.,0.0643368,0.,-0.6803561,0.,0.0643383,0.,-0.419685,
 0.2683925,0.,-0.0558727,0.,0.3401788,0.,-0.0463676,0.,0.1349995,0.1187
 089,0.,-0.0084641,0.,0.3401772,0.,-0.0179706,0.,0.2846855\Polar=7.6634
 323,0.,5.4931556,-0.5742349,0.,7.9542611\PG=C02V [C2(O1),SGV(H2)]\NIma
 g=0\\0.54289328,0.,0.00005253,-0.10886480,0.,0.59803251,-0.04429475,0.
 ,-0.03445512,0.04942805,0.,-0.00002756,0.,0.,0.00002144,0.02827861,0.,
 -0.52617002,-0.01781228,0.,0.54188829,-0.49859853,0.,0.14331992,-0.005
 13330,0.,-0.01046634,0.50373183,0.,-0.00002497,0.,0.,0.00000612,0.,0.,
 0.00001885,0.08058618,0.,-0.07186249,0.05226740,0.,-0.01571827,-0.1328
 5358,0.,0.08758076\\-0.00004748,0.,-0.00003687,0.00001033,0.,0.0000357
 1,0.00003715,0.,0.00000117\\\@


 Democracy is the recurrent suspicion that more than half of the people
 are right more than half of the time.
 -- E. B. White
 Job cpu time:       0 days  0 hours  1 minutes 40.2 seconds.
 File lengths (MBytes):  RWF=     75 Int=      0 D2E=      0 Chk=      1 Scr=      1
 Normal termination of Gaussian 09 at Wed Aug 30 11:30:33 2017.
