 Entering Gaussian System, Link 0=/soft/gaussian/09-d.01/g09/g09
 Input=O_gaussian.inp
 Output=O_gaussian.out
 Initial command:
 /soft/gaussian/09-d.01/g09/l1.exe "/scratch/sjklipp/Gau-62014.inp" -scrdir="/scratch/sjklipp/"
 Entering Link 1 = /soft/gaussian/09-d.01/g09/l1.exe PID=     62015.
  
 Copyright (c) 1988,1990,1992,1993,1995,1998,2003,2009,2013,
            Gaussian, Inc.  All Rights Reserved.
  
 This is part of the Gaussian(R) 09 program.  It is based on
 the Gaussian(R) 03 system (copyright 2003, Gaussian, Inc.),
 the Gaussian(R) 98 system (copyright 1998, Gaussian, Inc.),
 the Gaussian(R) 94 system (copyright 1995, Gaussian, Inc.),
 the Gaussian 92(TM) system (copyright 1992, Gaussian, Inc.),
 the Gaussian 90(TM) system (copyright 1990, Gaussian, Inc.),
 the Gaussian 88(TM) system (copyright 1988, Gaussian, Inc.),
 the Gaussian 86(TM) system (copyright 1986, Carnegie Mellon
 University), and the Gaussian 82(TM) system (copyright 1983,
 Carnegie Mellon University). Gaussian is a federally registered
 trademark of Gaussian, Inc.
  
 This software contains proprietary and confidential information,
 including trade secrets, belonging to Gaussian, Inc.
  
 This software is provided under written license and may be
 used, copied, transmitted, or stored only in accord with that
 written license.
  
 The following legend is applicable only to US Government
 contracts under FAR:
  
                    RESTRICTED RIGHTS LEGEND
  
 Use, reproduction and disclosure by the US Government is
 subject to restrictions as set forth in subparagraphs (a)
 and (c) of the Commercial Computer Software - Restricted
 Rights clause in FAR 52.227-19.
  
 Gaussian, Inc.
 340 Quinnipiac St., Bldg. 40, Wallingford CT 06492
  
  
 ---------------------------------------------------------------
 Warning -- This program may not be used in any manner that
 competes with the business of Gaussian, Inc. or will provide
 assistance to any competitor of Gaussian, Inc.  The licensee
 of this program is prohibited from giving any competitor of
 Gaussian, Inc. access to this program.  By using this program,
 the user acknowledges that Gaussian, Inc. is engaged in the
 business of creating and licensing software in the field of
 computational chemistry and represents and warrants to the
 licensee that it is not a competitor of Gaussian, Inc. and that
 it will not use this program in any manner prohibited above.
 ---------------------------------------------------------------
  

 Cite this work as:
 Gaussian 09, Revision D.01,
 M. J. Frisch, G. W. Trucks, H. B. Schlegel, G. E. Scuseria, 
 M. A. Robb, J. R. Cheeseman, G. Scalmani, V. Barone, B. Mennucci, 
 G. A. Petersson, H. Nakatsuji, M. Caricato, X. Li, H. P. Hratchian, 
 A. F. Izmaylov, J. Bloino, G. Zheng, J. L. Sonnenberg, M. Hada, 
 M. Ehara, K. Toyota, R. Fukuda, J. Hasegawa, M. Ishida, T. Nakajima, 
 Y. Honda, O. Kitao, H. Nakai, T. Vreven, J. A. Montgomery, Jr., 
 J. E. Peralta, F. Ogliaro, M. Bearpark, J. J. Heyd, E. Brothers, 
 K. N. Kudin, V. N. Staroverov, T. Keith, R. Kobayashi, J. Normand, 
 K. Raghavachari, A. Rendell, J. C. Burant, S. S. Iyengar, J. Tomasi, 
 M. Cossi, N. Rega, J. M. Millam, M. Klene, J. E. Knox, J. B. Cross, 
 V. Bakken, C. Adamo, J. Jaramillo, R. Gomperts, R. E. Stratmann, 
 O. Yazyev, A. J. Austin, R. Cammi, C. Pomelli, J. W. Ochterski, 
 R. L. Martin, K. Morokuma, V. G. Zakrzewski, G. A. Voth, 
 P. Salvador, J. J. Dannenberg, S. Dapprich, A. D. Daniels, 
 O. Farkas, J. B. Foresman, J. V. Ortiz, J. Cioslowski, 
 and D. J. Fox, Gaussian, Inc., Wallingford CT, 2013.
 
 ******************************************
 Gaussian 09:  EM64L-G09RevD.01 24-Apr-2013
                30-Aug-2017 
 ******************************************
 %mem=20GB
 %nproc=10
 Will use up to   10 processors via shared memory.
 Default route:  MaxDisk=100GB
 -------------------------------------------------------
 #P b2plypd3/cc-pvtz opt=(maxcyc=50) int=ultrafine nosym
 -------------------------------------------------------
 1/6=50,18=20,19=15,38=1/1,3;
 2/9=110,12=2,15=1,17=6,18=5,40=1/2;
 3/5=16,6=1,11=9,16=1,25=1,30=1,71=1,74=-60,75=-5/1,2,3;
 4//1;
 5/5=2,38=5/2;
 8/6=4,10=1/1;
 9/15=2,16=-3/6;
 10/5=1,31=1/2;
 6/7=2,8=2,9=2,10=2/1;
 7/12=2,30=1/1,2,3,16;
 1/6=50,18=20,19=15/3(2);
 2/9=110,15=1/2;
 99//99;
 2/9=110,15=1/2;
 3/5=16,6=1,11=9,16=1,25=1,30=1,71=1,74=-60,75=-5/1,2,3;
 4/5=5,16=3,69=1/1;
 5/5=2,38=5/2;
 8/6=4,10=1/1;
 9/15=2,16=-3/6;
 10/5=1,31=1/2;
 7/12=2,30=1/1,2,3,16;
 1/6=50,18=20,19=15/3(-8);
 2/9=110,15=1/2;
 6/7=2,8=2,9=2,10=2/1;
 99//99;
 Leave Link    1 at Wed Aug 30 11:24:00 2017, MaxMem=  2684354560 cpu:         0.4
 (Enter /soft/gaussian/09-d.01/g09/l101.exe)
 -
 O
 -
 Symbolic Z-matrix:
 Charge =  0 Multiplicity = 1
 O
 H                    1    r2
 H                    1    r3       2    a3
       Variables:
  r2                    0.969                    
  r3                    0.969                    
  a3                  103.98                     
 
 NAtoms=      3 NQM=        3 NQMF=       0 NMMI=      0 NMMIF=      0
                NMic=       0 NMicF=      0.
                    Isotopes and Nuclear Properties:
 (Nuclear quadrupole moments (NQMom) in fm**2, nuclear magnetic moments (NMagM)
  in nuclear magnetons)

  Atom         1           2           3
 IAtWgt=          16           1           1
 AtmWgt=  15.9949146   1.0078250   1.0078250
 NucSpn=           0           1           1
 AtZEff=   0.0000000   0.0000000   0.0000000
 NQMom=    0.0000000   0.0000000   0.0000000
 NMagM=    0.0000000   2.7928460   2.7928460
 AtZNuc=   8.0000000   1.0000000   1.0000000
 Leave Link  101 at Wed Aug 30 11:24:00 2017, MaxMem=  2684354560 cpu:         2.8
 (Enter /soft/gaussian/09-d.01/g09/l103.exe)

 GradGradGradGradGradGradGradGradGradGradGradGradGradGradGradGradGradGrad
 Berny optimization.
 Initialization pass.
                           ----------------------------
                           !    Initial Parameters    !
                           ! (Angstroms and Degrees)  !
 --------------------------                            --------------------------
 ! Name  Definition              Value          Derivative Info.                !
 --------------------------------------------------------------------------------
 ! R1    R(1,2)                  0.969          estimate D2E/DX2                !
 ! R2    R(1,3)                  0.969          estimate D2E/DX2                !
 ! A1    A(2,1,3)              103.98           estimate D2E/DX2                !
 --------------------------------------------------------------------------------
 Trust Radius=3.00D-01 FncErr=1.00D-07 GrdErr=1.00D-07
 Number of steps in this run=     50 maximum allowed number of steps=    100.
 GradGradGradGradGradGradGradGradGradGradGradGradGradGradGradGradGradGrad

 Leave Link  103 at Wed Aug 30 11:24:00 2017, MaxMem=  2684354560 cpu:         0.0
 (Enter /soft/gaussian/09-d.01/g09/l202.exe)
                          Input orientation:                          
 ---------------------------------------------------------------------
 Center     Atomic      Atomic             Coordinates (Angstroms)
 Number     Number       Type             X           Y           Z
 ---------------------------------------------------------------------
      1          8           0        0.000000    0.000000    0.000000
      2          1           0        0.000000    0.000000    0.969000
      3          1           0        0.940298    0.000000   -0.234094
 ---------------------------------------------------------------------
                    Distance matrix (angstroms):
                    1          2          3
     1  O    0.000000
     2  H    0.969000   0.000000
     3  H    0.969000   1.526957   0.000000
 Symmetry turned off by external request.
 Stoichiometry    H2O
 Framework group  C2V[C2(O),SGV(H2)]
 Deg. of freedom     2
 Full point group                 C2V     NOp   4
 Rotational constants (GHZ):    792.9064455    430.1388572    278.8611931
 Leave Link  202 at Wed Aug 30 11:24:00 2017, MaxMem=  2684354560 cpu:         0.1
 (Enter /soft/gaussian/09-d.01/g09/l301.exe)
 Standard basis: CC-pVTZ (5D, 7F)
 Ernie: Thresh=  0.10000D-02 Tol=  0.10000D-05 Strict=F.
 Ernie:  3 primitive shells out of 42 were deleted.
    58 basis functions,    86 primitive gaussians,    65 cartesian basis functions
     5 alpha electrons        5 beta electrons
       nuclear repulsion energy         9.0842609829 Hartrees.
 IExCor=  419 DFT=T Ex+Corr=B2PLYPD3 ExCW=0 ScaHFX=  0.530000
 ScaDFX=  0.470000  0.470000  0.730000  0.730000 ScalE2=  0.270000  0.270000
 IRadAn=      5 IRanWt=     -1 IRanGd=            0 ICorTp=0 IEmpDi=141
 NAtoms=    3 NActive=    3 NUniq=    3 SFac= 1.00D+00 NAtFMM=   60 NAOKFM=F Big=F
 Integral buffers will be    131072 words long.
 Regular integral format.
 Two-electron integral symmetry is turned off.
 R6Disp:  Grimme-D3(BJ) Dispersion energy=       -0.0002343077 Hartrees.
 Nuclear repulsion after empirical dispersion term =        9.0840266752 Hartrees.
 Leave Link  301 at Wed Aug 30 11:24:00 2017, MaxMem=  2684354560 cpu:         0.3
 (Enter /soft/gaussian/09-d.01/g09/l302.exe)
 NPDir=0 NMtPBC=     1 NCelOv=     1 NCel=       1 NClECP=     1 NCelD=      1
         NCelK=      1 NCelE2=     1 NClLst=     1 CellRange=     0.0.
 One-electron integrals computed using PRISM.
 NBasis=    58 RedAO= T EigKep=  2.63D-03  NBF=    58
 NBsUse=    58 1.00D-06 EigRej= -1.00D+00 NBFU=    58
 Precomputing XC quadrature grid using
 IXCGrd= 4 IRadAn=           5 IRanWt=          -1 IRanGd=           0 AccXCQ= 0.00D+00.
 Generated NRdTot=       0 NPtTot=           0 NUsed=           0 NTot=          32
 NSgBfM=    65    65    65    65    65 MxSgAt=     3 MxSgA2=     3.
 Leave Link  302 at Wed Aug 30 11:24:01 2017, MaxMem=  2684354560 cpu:         1.2
 (Enter /soft/gaussian/09-d.01/g09/l303.exe)
 DipDrv:  MaxL=1.
 Leave Link  303 at Wed Aug 30 11:24:01 2017, MaxMem=  2684354560 cpu:         0.2
 (Enter /soft/gaussian/09-d.01/g09/l401.exe)
 ExpMin= 1.03D-01 ExpMax= 1.53D+04 ExpMxC= 5.22D+02 IAcc=3 IRadAn=         5 AccDes= 0.00D+00
 Harris functional with IExCor=  419 and IRadAn=       5 diagonalized for initial guess.
 HarFok:  IExCor=  419 AccDes= 0.00D+00 IRadAn=         5 IDoV= 1 UseB2=F ITyADJ=14
 ICtDFT=  3500011 ScaDFX=  1.000000  1.000000  1.000000  1.000000
 FoFCou: FMM=F IPFlag=           0 FMFlag=      100000 FMFlg1=           0
         NFxFlg=           0 DoJE=T BraDBF=F KetDBF=T FulRan=T
         wScrn=  0.000000 ICntrl=     500 IOpCl=  0 I1Cent=   200000004 NGrid=           0
         NMat0=    1 NMatS0=      1 NMatT0=    0 NMatD0=    1 NMtDS0=    0 NMtDT0=    0
 Symmetry not used in FoFCou.
 Harris En= -76.4962552311417    
 JPrj=0 DoOrth=F DoCkMO=F.
 Leave Link  401 at Wed Aug 30 11:24:01 2017, MaxMem=  2684354560 cpu:         1.3
 (Enter /soft/gaussian/09-d.01/g09/l502.exe)
 Closed shell SCF:
 Using DIIS extrapolation, IDIIS=  1040.
 Two-electron integral symmetry not used.
 Keep R1 ints in memory in canonical form, NReq=3457515.
 IVT=       32271 IEndB=       32271 NGot=  2684354560 MDV=  2682857674
 LenX=  2682857674 LenY=  2682853008
 Requested convergence on RMS density matrix=1.00D-08 within 128 cycles.
 Requested convergence on MAX density matrix=1.00D-06.
 Requested convergence on             energy=1.00D-06.
 No special actions if energy rises.
 FoFCou: FMM=F IPFlag=           0 FMFlag=           0 FMFlg1=           0
         NFxFlg=           0 DoJE=F BraDBF=F KetDBF=F FulRan=T
         wScrn=  0.000000 ICntrl=     600 IOpCl=  0 I1Cent=           0 NGrid=           0
         NMat0=    1 NMatS0=   1711 NMatT0=    0 NMatD0=    1 NMtDS0=    0 NMtDT0=    0
 Symmetry not used in FoFCou.
 Integral accuracy reduced to 1.0D-05 until final iterations.

 Cycle   1  Pass 0  IDiag  1:
 E= -76.2370118346102    
 DIIS: error= 6.43D-02 at cycle   1 NSaved=   1.
 NSaved= 1 IEnMin= 1 EnMin= -76.2370118346102     IErMin= 1 ErrMin= 6.43D-02
 ErrMax= 6.43D-02  0.00D+00 EMaxC= 1.00D-01 BMatC= 1.45D-01 BMatP= 1.45D-01
 IDIUse=3 WtCom= 3.57D-01 WtEn= 6.43D-01
 Coeff-Com:  0.100D+01
 Coeff-En:   0.100D+01
 Coeff:      0.100D+01
 Gap=     0.316 Goal=   None    Shift=    0.000
 GapD=    0.316 DampG=1.000 DampE=0.500 DampFc=0.5000 IDamp=-1.
 Damping current iteration by 5.00D-01
 RMSDP=4.77D-03 MaxDP=9.53D-02              OVMax= 1.65D-01

 Cycle   2  Pass 0  IDiag  1:
 E= -76.2774401169929     Delta-E=       -0.040428282383 Rises=F Damp=T
 DIIS: error= 1.10D-02 at cycle   2 NSaved=   2.
 NSaved= 2 IEnMin= 2 EnMin= -76.2774401169929     IErMin= 2 ErrMin= 1.10D-02
 ErrMax= 1.10D-02  0.00D+00 EMaxC= 1.00D-01 BMatC= 4.17D-03 BMatP= 1.45D-01
 IDIUse=3 WtCom= 8.90D-01 WtEn= 1.10D-01
 Coeff-Com:  0.232D-01 0.977D+00
 Coeff-En:   0.760D-01 0.924D+00
 Coeff:      0.290D-01 0.971D+00
 Gap=     0.457 Goal=   None    Shift=    0.000
 RMSDP=5.48D-04 MaxDP=1.09D-02 DE=-4.04D-02 OVMax= 8.45D-02

 Cycle   3  Pass 0  IDiag  1:
 E= -76.3231618035334     Delta-E=       -0.045721686541 Rises=F Damp=F
 DIIS: error= 1.75D-03 at cycle   3 NSaved=   3.
 NSaved= 3 IEnMin= 3 EnMin= -76.3231618035334     IErMin= 3 ErrMin= 1.75D-03
 ErrMax= 1.75D-03  0.00D+00 EMaxC= 1.00D-01 BMatC= 8.13D-05 BMatP= 4.17D-03
 IDIUse=3 WtCom= 9.83D-01 WtEn= 1.75D-02
 Coeff-Com: -0.218D-01 0.274D-02 0.102D+01
 Coeff-En:   0.000D+00 0.000D+00 0.100D+01
 Coeff:     -0.214D-01 0.269D-02 0.102D+01
 Gap=     0.460 Goal=   None    Shift=    0.000
 RMSDP=7.56D-05 MaxDP=9.33D-04 DE=-4.57D-02 OVMax= 3.32D-03

 Cycle   4  Pass 0  IDiag  1:
 E= -76.3232304877751     Delta-E=       -0.000068684242 Rises=F Damp=F
 DIIS: error= 3.01D-04 at cycle   4 NSaved=   4.
 NSaved= 4 IEnMin= 4 EnMin= -76.3232304877751     IErMin= 4 ErrMin= 3.01D-04
 ErrMax= 3.01D-04  0.00D+00 EMaxC= 1.00D-01 BMatC= 2.50D-06 BMatP= 8.13D-05
 IDIUse=3 WtCom= 9.97D-01 WtEn= 3.01D-03
 Coeff-Com:  0.949D-03-0.866D-02 0.729D-01 0.935D+00
 Coeff-En:   0.000D+00 0.000D+00 0.000D+00 0.100D+01
 Coeff:      0.946D-03-0.863D-02 0.727D-01 0.935D+00
 Gap=     0.461 Goal=   None    Shift=    0.000
 RMSDP=1.62D-05 MaxDP=3.51D-04 DE=-6.87D-05 OVMax= 4.97D-04

 Cycle   5  Pass 0  IDiag  1:
 E= -76.3232323028351     Delta-E=       -0.000001815060 Rises=F Damp=F
 DIIS: error= 4.72D-05 at cycle   5 NSaved=   5.
 NSaved= 5 IEnMin= 5 EnMin= -76.3232323028351     IErMin= 5 ErrMin= 4.72D-05
 ErrMax= 4.72D-05  0.00D+00 EMaxC= 1.00D-01 BMatC= 5.72D-08 BMatP= 2.50D-06
 IDIUse=1 WtCom= 1.00D+00 WtEn= 0.00D+00
 Coeff-Com:  0.116D-02-0.838D-03-0.411D-01-0.853D-02 0.105D+01
 Coeff:      0.116D-02-0.838D-03-0.411D-01-0.853D-02 0.105D+01
 Gap=     0.461 Goal=   None    Shift=    0.000
 RMSDP=4.36D-06 MaxDP=7.33D-05 DE=-1.82D-06 OVMax= 1.57D-04

 Initial convergence to 1.0D-05 achieved.  Increase integral accuracy.
 Cycle   6  Pass 1  IDiag  1:
 E= -76.3232325158123     Delta-E=       -0.000000212977 Rises=F Damp=F
 DIIS: error= 6.79D-06 at cycle   1 NSaved=   1.
 NSaved= 1 IEnMin= 1 EnMin= -76.3232325158123     IErMin= 1 ErrMin= 6.79D-06
 ErrMax= 6.79D-06  0.00D+00 EMaxC= 1.00D-01 BMatC= 1.70D-09 BMatP= 1.70D-09
 IDIUse=1 WtCom= 1.00D+00 WtEn= 0.00D+00
 Coeff-Com:  0.100D+01
 Coeff:      0.100D+01
 Gap=     0.461 Goal=   None    Shift=    0.000
 RMSDP=4.36D-06 MaxDP=7.33D-05 DE=-2.13D-07 OVMax= 3.58D-05

 Cycle   7  Pass 1  IDiag  1:
 E= -76.3232325175997     Delta-E=       -0.000000001787 Rises=F Damp=F
 DIIS: error= 7.44D-06 at cycle   2 NSaved=   2.
 NSaved= 2 IEnMin= 2 EnMin= -76.3232325175997     IErMin= 1 ErrMin= 6.79D-06
 ErrMax= 7.44D-06  0.00D+00 EMaxC= 1.00D-01 BMatC= 1.34D-09 BMatP= 1.70D-09
 IDIUse=1 WtCom= 1.00D+00 WtEn= 0.00D+00
 Coeff-Com:  0.463D+00 0.537D+00
 Coeff:      0.463D+00 0.537D+00
 Gap=     0.461 Goal=   None    Shift=    0.000
 RMSDP=2.62D-07 MaxDP=6.23D-06 DE=-1.79D-09 OVMax= 9.66D-06

 Cycle   8  Pass 1  IDiag  1:
 E= -76.3232325184714     Delta-E=       -0.000000000872 Rises=F Damp=F
 DIIS: error= 1.07D-06 at cycle   3 NSaved=   3.
 NSaved= 3 IEnMin= 3 EnMin= -76.3232325184714     IErMin= 3 ErrMin= 1.07D-06
 ErrMax= 1.07D-06  0.00D+00 EMaxC= 1.00D-01 BMatC= 3.72D-11 BMatP= 1.34D-09
 IDIUse=1 WtCom= 1.00D+00 WtEn= 0.00D+00
 Coeff-Com: -0.142D+00-0.501D-02 0.115D+01
 Coeff:     -0.142D+00-0.501D-02 0.115D+01
 Gap=     0.461 Goal=   None    Shift=    0.000
 RMSDP=1.46D-07 MaxDP=2.21D-06 DE=-8.72D-10 OVMax= 6.66D-06

 Cycle   9  Pass 1  IDiag  1:
 E= -76.3232325185473     Delta-E=       -0.000000000076 Rises=F Damp=F
 DIIS: error= 1.78D-07 at cycle   4 NSaved=   4.
 NSaved= 4 IEnMin= 4 EnMin= -76.3232325185473     IErMin= 4 ErrMin= 1.78D-07
 ErrMax= 1.78D-07  0.00D+00 EMaxC= 1.00D-01 BMatC= 1.23D-12 BMatP= 3.72D-11
 IDIUse=1 WtCom= 1.00D+00 WtEn= 0.00D+00
 Coeff-Com: -0.465D-01-0.220D-01 0.199D+00 0.869D+00
 Coeff:     -0.465D-01-0.220D-01 0.199D+00 0.869D+00
 Gap=     0.461 Goal=   None    Shift=    0.000
 RMSDP=2.05D-08 MaxDP=3.10D-07 DE=-7.59D-11 OVMax= 7.99D-07

 Cycle  10  Pass 1  IDiag  1:
 E= -76.3232325185483     Delta-E=       -0.000000000001 Rises=F Damp=F
 DIIS: error= 1.67D-08 at cycle   5 NSaved=   5.
 NSaved= 5 IEnMin= 5 EnMin= -76.3232325185483     IErMin= 5 ErrMin= 1.67D-08
 ErrMax= 1.67D-08  0.00D+00 EMaxC= 1.00D-01 BMatC= 1.19D-14 BMatP= 1.23D-12
 IDIUse=1 WtCom= 1.00D+00 WtEn= 0.00D+00
 Coeff-Com:  0.744D-02 0.460D-02-0.366D-01-0.128D+00 0.115D+01
 Coeff:      0.744D-02 0.460D-02-0.366D-01-0.128D+00 0.115D+01
 Gap=     0.461 Goal=   None    Shift=    0.000
 RMSDP=2.00D-09 MaxDP=2.22D-08 DE=-9.52D-13 OVMax= 9.35D-08

 SCF Done:  E(RB2PLYPD3) =  -76.3232325185     A.U. after   10 cycles
            NFock= 10  Conv=0.20D-08     -V/T= 2.0038
 KE= 7.603689455435D+01 PE=-1.990002066756D+02 EE= 3.755605292746D+01
 Leave Link  502 at Wed Aug 30 11:24:01 2017, MaxMem=  2684354560 cpu:         4.4
 (Enter /soft/gaussian/09-d.01/g09/l801.exe)
 DoSCS=T DFT=T ScalE2(SS,OS)=  0.270000  0.270000
 ExpMin= 1.03D-01 ExpMax= 1.53D+04 ExpMxC= 5.22D+02 IAcc=3 IRadAn=         5 AccDes= 0.00D+00
 HarFok:  IExCor=  205 AccDes= 0.00D+00 IRadAn=         5 IDoV=-2 UseB2=F ITyADJ=14
 ICtDFT= 12500011 ScaDFX=  1.000000  1.000000  1.000000  1.000000
 Largest valence mixing into a core orbital is  6.75D-05
 Largest core mixing into a valence orbital is  9.95D-06
 Range of M.O.s used for correlation:     2    58
 NBasis=    58 NAE=     5 NBE=     5 NFC=     1 NFV=     0
 NROrb=     57 NOA=     4 NOB=     4 NVA=    53 NVB=    53
 Leave Link  801 at Wed Aug 30 11:24:01 2017, MaxMem=  2684354560 cpu:         0.3
 (Enter /soft/gaussian/09-d.01/g09/l906.exe)
 DoSCS=T DFT=T ScalE2(SS,OS)=  0.270000  0.270000
 Frozen-core derivative calculation, NFC=   1 NFV=   0.
 FulOut=F Deriv=T AODrv=T NAtomX=     3
   MMem=       18183  MDisk=           4 MDiskD=           4
  W3Min=       18850 MinDsk=      107395 NBas6D=          65
 NBas2D=        2271    NTT=        2145    LW2=     3500000
    MDV=  2684305632 MDiskM=      206331 NBas2p=        2271
 Fully direct method using O(ONN) memory.
 IMap=   1   2   3   4   5
 JobTyp=1 Pass  1:  I=   2 to   5 NPSUse= 10 ParTrn=T ParDer=T DoDerP=T.
 Spin components of T(2) and E(2):
     alpha-alpha T2 =       0.1138070632D-01 E2=     -0.1024260928D-01
     alpha-beta  T2 =       0.6683067483D-01 E2=     -0.6330091434D-01
     beta-beta   T2 =       0.1138070632D-01 E2=     -0.1024260928D-01
 The integrals were generated   1 times.
 E2(B2PLYPD3) =    -0.8378613290D-01 E(B2PLYPD3) =    -0.76407018651447D+02
 Leave Link  906 at Wed Aug 30 11:24:02 2017, MaxMem=  2684354560 cpu:         2.7
 (Enter /soft/gaussian/09-d.01/g09/l1002.exe)
 Minotr:  Closed shell wavefunction.
          Computing MP2/KS-MP2 derivatives.
          Using Z-Vector for PSCF gradient.
          Skipping F1 and S1 gradient terms here.
          IDoAtm=111
          Frozen-core window.
          Direct CPHF calculation.
          Differentiating once with respect to electric field.
                with respect to dipole field.
          Differentiating once with respect to nuclear coordinates.
          Requested convergence is 1.0D-10 RMS, and 1.0D-09 maximum.
          NewPWx=F KeepS1=T KeepF1=T KeepIn=T MapXYZ=F SortEE=F KeepMc=T.
          MDV=    2684354469 using IRadAn=       5.
 Using stored XC quadrature information.
 Keep R1 ints in memory in canonical form, NReq=3435286.
 FoFCou: FMM=F IPFlag=           0 FMFlag=           0 FMFlg1=           0
         NFxFlg=           0 DoJE=F BraDBF=F KetDBF=F FulRan=T
         wScrn=  0.000000 ICntrl=     600 IOpCl=  0 I1Cent=           0 NGrid=           0
         NMat0=    1 NMatS0=   1711 NMatT0=    0 NMatD0=    1 NMtDS0=    0 NMtDT0=    0
 Symmetry not used in FoFCou.
          Solving linear equations separately, MaxMat=       0.
          There are     1 degrees of freedom in the 1st order CPHF.  IDoFFX=0 NUNeed=     1.
 LinEq1:  Iter=  0 NonCon=     1 RMS=1.66D-03 Max=1.04D-02 NDo=     1
 AX will form     1 AO Fock derivatives at one time.
 LinEq1:  Iter=  1 NonCon=     1 RMS=2.67D-04 Max=2.67D-03 NDo=     1
 LinEq1:  Iter=  2 NonCon=     1 RMS=1.93D-04 Max=2.03D-03 NDo=     1
 LinEq1:  Iter=  3 NonCon=     1 RMS=3.25D-05 Max=2.14D-04 NDo=     1
 LinEq1:  Iter=  4 NonCon=     1 RMS=6.27D-06 Max=4.06D-05 NDo=     1
 LinEq1:  Iter=  5 NonCon=     1 RMS=5.67D-07 Max=4.95D-06 NDo=     1
 LinEq1:  Iter=  6 NonCon=     1 RMS=5.95D-08 Max=3.89D-07 NDo=     1
 LinEq1:  Iter=  7 NonCon=     1 RMS=4.37D-09 Max=3.98D-08 NDo=     1
 LinEq1:  Iter=  8 NonCon=     1 RMS=2.16D-10 Max=1.93D-09 NDo=     1
 LinEq1:  Iter=  9 NonCon=     0 RMS=1.18D-11 Max=7.63D-11 NDo=     1
 Linear equations converged to 1.000D-10 1.000D-09 after     9 iterations.
 End of Minotr F.D. properties file   721 does not exist.
 End of Minotr F.D. properties file   722 does not exist.
 End of Minotr F.D. properties file   788 does not exist.
 Leave Link 1002 at Wed Aug 30 11:24:02 2017, MaxMem=  2684354560 cpu:         8.3
 (Enter /soft/gaussian/09-d.01/g09/l601.exe)
 Copying SCF densities to generalized density rwf, IOpCl= 0 IROHF=0.

 **********************************************************************

            Population analysis using the SCF density.

 **********************************************************************

 Alpha  occ. eigenvalues --  -19.72187  -1.14392  -0.59800  -0.46509  -0.38987
 Alpha virt. eigenvalues --    0.07130   0.14056   0.43405   0.48752   0.56543
 Alpha virt. eigenvalues --    0.66432   0.69147   0.69540   0.75173   0.84470
 Alpha virt. eigenvalues --    1.01504   1.08042   1.37363   1.40120   1.87384
 Alpha virt. eigenvalues --    1.89682   1.92051   2.00263   2.07399   2.38082
 Alpha virt. eigenvalues --    2.74752   3.17274   3.30644   3.39377   3.46649
 Alpha virt. eigenvalues --    3.54239   3.65856   3.70418   3.76895   3.82208
 Alpha virt. eigenvalues --    3.85598   3.94211   4.10728   4.15298   4.36218
 Alpha virt. eigenvalues --    4.43372   4.63565   4.88116   4.99037   5.25895
 Alpha virt. eigenvalues --    5.76806   6.26246   6.58901   6.61173   6.68832
 Alpha virt. eigenvalues --    6.71635   6.73764   6.86563   6.94386   7.14861
 Alpha virt. eigenvalues --    7.47399   7.93159  12.26960
          Condensed to atoms (all electrons):
               1          2          3
     1  O    7.753899   0.355337   0.355337
     2  H    0.355337   0.456968  -0.044592
     3  H    0.355337  -0.044592   0.456968
 Mulliken charges:
               1
     1  O   -0.464574
     2  H    0.232287
     3  H    0.232287
 Sum of Mulliken charges =   0.00000
 Mulliken charges with hydrogens summed into heavy atoms:
               1
     1  O    0.000000
 Electronic spatial extent (au):  <R**2>=             19.5235
 Charge=              0.0000 electrons
 Dipole moment (field-independent basis, Debye):
    X=              1.5628    Y=              0.0000    Z=              1.2214  Tot=              1.9835
 Quadrupole moment (field-independent basis, Debye-Ang):
   XX=             -5.1128   YY=             -7.3463   ZZ=             -4.7806
   XY=              0.0000   XZ=             -0.6671   YZ=              0.0000
 Traceless Quadrupole moment (field-independent basis, Debye-Ang):
   XX=              0.6338   YY=             -1.5997   ZZ=              0.9660
   XY=              0.0000   XZ=             -0.6671   YZ=              0.0000
 Octapole moment (field-independent basis, Debye-Ang**2):
  XXX=              0.2752  YYY=              0.0000  ZZZ=              0.7313  XYY=             -0.4859
  XXY=              0.0000  XXZ=             -0.8127  XZZ=             -0.3793  YZZ=              0.0000
  YYZ=             -0.3797  XYZ=              0.0000
 Hexadecapole moment (field-independent basis, Debye-Ang**3):
 XXXX=             -5.5331 YYYY=             -5.7203 ZZZZ=             -5.3925 XXXY=              0.0000
 XXXZ=             -0.3585 YYYX=              0.0000 YYYZ=              0.0000 ZZZX=              0.0762
 ZZZY=              0.0000 XXYY=             -2.2071 XXZZ=             -2.3669 YYZZ=             -2.2349
 XXYZ=              0.0000 YYXZ=              0.0559 ZZXY=              0.0000
 N-N= 9.084026675206D+00 E-N=-1.990002062906D+02  KE= 7.603689455435D+01
 No NMR shielding tensors so no spin-rotation constants.
 Leave Link  601 at Wed Aug 30 11:24:03 2017, MaxMem=  2684354560 cpu:         1.1
 (Enter /soft/gaussian/09-d.01/g09/l701.exe)
 Compute integral first derivatives.
 ... and contract with generalized density number  2.
 R6Disp: Adding Grimme-D3(BJ) dispersion energy 1st derivatives to the gradient.
 Leave Link  701 at Wed Aug 30 11:24:03 2017, MaxMem=  2684354560 cpu:         1.3
 (Enter /soft/gaussian/09-d.01/g09/l702.exe)
 L702 exits ... SP integral derivatives will be done elsewhere.
 Leave Link  702 at Wed Aug 30 11:24:03 2017, MaxMem=  2684354560 cpu:         0.1
 (Enter /soft/gaussian/09-d.01/g09/l703.exe)
 Compute integral first derivatives, UseDBF=F ICtDFT=           0.
 Integral derivatives from FoFJK, PRISM(SPDF).
 Calling FoFJK, ICntrl=  10002127 FMM=F ISym2X=0 I1Cent= 0 IOpClX= 0 NMat=1 NMatS=1 NMatT=0.
 FoFJK:  IHMeth= 1 ICntrl=10002127 DoSepK=F KAlg= 0 I1Cent=   0 FoldK=F
 IRaf=         0 NMat=   1 IRICut=       1 DoRegI=T DoRafI=F ISym2E= 0.
 FoFCou: FMM=F IPFlag=           0 FMFlag=      100000 FMFlg1=         800
         NFxFlg=           0 DoJE=F BraDBF=F KetDBF=F FulRan=T
         wScrn=  0.000000 ICntrl=10002127 IOpCl=  0 I1Cent=           0 NGrid=           0
         NMat0=    1 NMatS0=      1 NMatT0=    0 NMatD0=    1 NMtDS0=    0 NMtDT0=    0
 Symmetry not used in FoFCou.
 Leave Link  703 at Wed Aug 30 11:24:03 2017, MaxMem=  2684354560 cpu:         4.1
 (Enter /soft/gaussian/09-d.01/g09/l716.exe)
 Dipole        = 5.99301723D-01-2.65604291D-17 4.68394265D-01
 -------------------------------------------------------------------
 Center     Atomic                   Forces (Hartrees/Bohr)
 Number     Number              X              Y              Z
 -------------------------------------------------------------------
      1        8           0.008612348    0.000000000    0.006731102
      2        1           0.000261570    0.000000000   -0.009209957
      3        1          -0.008873918    0.000000000    0.002478855
 -------------------------------------------------------------------
 Cartesian Forces:  Max     0.009209957 RMS     0.005669246
 Leave Link  716 at Wed Aug 30 11:24:03 2017, MaxMem=  2684354560 cpu:         0.2
 (Enter /soft/gaussian/09-d.01/g09/l103.exe)

 GradGradGradGradGradGradGradGradGradGradGradGradGradGradGradGradGradGrad
 Berny optimization.
 FormGI is forming the generalized inverse of G from B-inverse, IUseBI=4.
 Internal  Forces:  Max     0.009209941 RMS     0.007524969
 Search for a local minimum.
 Step number   1 out of a maximum of   50
 All quantities printed in internal units (Hartrees-Bohrs-Radians)
 RMS Force = .75250D-02 SwitMx=.10000D-02 MixMth= 1
 Mixed Optimization -- RFO/linear search
 Second derivative matrix not updated -- first step.
 The second derivative matrix:
                          R1        R2        A1
           R1           0.53582
           R2           0.00000   0.53582
           A1           0.00000   0.00000   0.16000
 ITU=  0
     Eigenvalues ---    0.16000   0.53582   0.53582
 RFO step:  Lambda=-3.17854889D-04 EMin= 1.60000000D-01
 Linear search not attempted -- first point.
 Iteration  1 RMS(Cart)=  0.01304536 RMS(Int)=  0.00001642
 Iteration  2 RMS(Cart)=  0.00001524 RMS(Int)=  0.00000000
 Iteration  3 RMS(Cart)=  0.00000000 RMS(Int)=  0.00000000
 ITry= 1 IFail=0 DXMaxC= 1.37D-02 DCOld= 1.00D+10 DXMaxT= 3.00D-01 DXLimC= 3.00D+00 Rises=F
 Variable       Old X    -DE/DX   Delta X   Delta X   Delta X     New X
                                 (Linear)    (Quad)   (Total)
    R1        1.83114  -0.00921   0.00000  -0.01718  -0.01718   1.81397
    R2        1.83114  -0.00921   0.00000  -0.01718  -0.01718   1.81397
    A1        1.81479  -0.00048   0.00000  -0.00299  -0.00299   1.81181
         Item               Value     Threshold  Converged?
 Maximum Force            0.009210     0.000450     NO 
 RMS     Force            0.007525     0.000300     NO 
 Maximum Displacement     0.013714     0.001800     NO 
 RMS     Displacement     0.013038     0.001200     NO 
 Predicted change in Energy=-1.590227D-04
 Lowest energy point so far.  Saving SCF results.
 GradGradGradGradGradGradGradGradGradGradGradGradGradGradGradGradGradGrad

 Leave Link  103 at Wed Aug 30 11:24:03 2017, MaxMem=  2684354560 cpu:         0.4
 (Enter /soft/gaussian/09-d.01/g09/l202.exe)
                          Input orientation:                          
 ---------------------------------------------------------------------
 Center     Atomic      Atomic             Coordinates (Angstroms)
 Number     Number       Type             X           Y           Z
 ---------------------------------------------------------------------
      1          8           0        0.002347    0.000000    0.001834
      2          1           0        0.003781    0.000000    0.961743
      3          1           0        0.934170    0.000000   -0.228672
 ---------------------------------------------------------------------
                    Distance matrix (angstroms):
                    1          2          3
     1  O    0.000000
     2  H    0.959910   0.000000
     3  H    0.959910   1.510864   0.000000
 Symmetry turned off by external request.
 Stoichiometry    H2O
 Framework group  C2V[C2(O),SGV(H2)]
 Deg. of freedom     2
 Full point group                 C2V     NOp   4
 Rotational constants (GHZ):    804.9168353    439.3507420    284.2160443
 Leave Link  202 at Wed Aug 30 11:24:03 2017, MaxMem=  2684354560 cpu:         0.1
 (Enter /soft/gaussian/09-d.01/g09/l301.exe)
 Standard basis: CC-pVTZ (5D, 7F)
 Ernie: Thresh=  0.10000D-02 Tol=  0.10000D-05 Strict=F.
 Ernie:  3 primitive shells out of 42 were deleted.
    58 basis functions,    86 primitive gaussians,    65 cartesian basis functions
     5 alpha electrons        5 beta electrons
       nuclear repulsion energy         9.1706988775 Hartrees.
 IExCor=  419 DFT=T Ex+Corr=B2PLYPD3 ExCW=0 ScaHFX=  0.530000
 ScaDFX=  0.470000  0.470000  0.730000  0.730000 ScalE2=  0.270000  0.270000
 IRadAn=      5 IRanWt=     -1 IRanGd=            0 ICorTp=0 IEmpDi=141
 NAtoms=    3 NActive=    3 NUniq=    3 SFac= 1.00D+00 NAtFMM=   60 NAOKFM=F Big=F
 Integral buffers will be    131072 words long.
 Regular integral format.
 Two-electron integral symmetry is turned off.
 R6Disp:  Grimme-D3(BJ) Dispersion energy=       -0.0002343024 Hartrees.
 Nuclear repulsion after empirical dispersion term =        9.1704645751 Hartrees.
 Leave Link  301 at Wed Aug 30 11:24:03 2017, MaxMem=  2684354560 cpu:         0.3
 (Enter /soft/gaussian/09-d.01/g09/l302.exe)
 NPDir=0 NMtPBC=     1 NCelOv=     1 NCel=       1 NClECP=     1 NCelD=      1
         NCelK=      1 NCelE2=     1 NClLst=     1 CellRange=     0.0.
 One-electron integrals computed using PRISM.
 NBasis=    58 RedAO= T EigKep=  2.55D-03  NBF=    58
 NBsUse=    58 1.00D-06 EigRej= -1.00D+00 NBFU=    58
 Precomputing XC quadrature grid using
 IXCGrd= 4 IRadAn=           5 IRanWt=          -1 IRanGd=           0 AccXCQ= 0.00D+00.
 Generated NRdTot=       0 NPtTot=           0 NUsed=           0 NTot=          32
 NSgBfM=    65    65    65    65    65 MxSgAt=     3 MxSgA2=     3.
 Leave Link  302 at Wed Aug 30 11:24:03 2017, MaxMem=  2684354560 cpu:         1.2
 (Enter /soft/gaussian/09-d.01/g09/l303.exe)
 DipDrv:  MaxL=1.
 Leave Link  303 at Wed Aug 30 11:24:03 2017, MaxMem=  2684354560 cpu:         0.2
 (Enter /soft/gaussian/09-d.01/g09/l401.exe)
 Initial guess from the checkpoint file:  "/scratch/sjklipp/Gau-62015.chk"
 B after Tr=     0.003105    0.000000    0.002427
         Rot=    1.000000    0.000000    0.000000    0.000000 Ang=   0.00 deg.
 Guess basis will be translated and rotated to current coordinates.
 JPrj=2 DoOrth=T DoCkMO=T.
 Leave Link  401 at Wed Aug 30 11:24:03 2017, MaxMem=  2684354560 cpu:         0.5
 (Enter /soft/gaussian/09-d.01/g09/l502.exe)
 Closed shell SCF:
 Using DIIS extrapolation, IDIIS=  1040.
 Two-electron integral symmetry not used.
 Keep R1 ints in memory in canonical form, NReq=3457515.
 IVT=       32271 IEndB=       32271 NGot=  2684354560 MDV=  2682857674
 LenX=  2682857674 LenY=  2682853008
 Requested convergence on RMS density matrix=1.00D-08 within 128 cycles.
 Requested convergence on MAX density matrix=1.00D-06.
 Requested convergence on             energy=1.00D-06.
 No special actions if energy rises.
 FoFCou: FMM=F IPFlag=           0 FMFlag=           0 FMFlg1=           0
         NFxFlg=           0 DoJE=F BraDBF=F KetDBF=F FulRan=T
         wScrn=  0.000000 ICntrl=     600 IOpCl=  0 I1Cent=           0 NGrid=           0
         NMat0=    1 NMatS0=   1711 NMatT0=    0 NMatD0=    1 NMtDS0=    0 NMtDT0=    0
 Symmetry not used in FoFCou.

 Cycle   1  Pass 1  IDiag  1:
 E= -76.3236324481670    
 DIIS: error= 1.26D-03 at cycle   1 NSaved=   1.
 NSaved= 1 IEnMin= 1 EnMin= -76.3236324481670     IErMin= 1 ErrMin= 1.26D-03
 ErrMax= 1.26D-03  0.00D+00 EMaxC= 1.00D-01 BMatC= 6.28D-05 BMatP= 6.28D-05
 IDIUse=3 WtCom= 9.87D-01 WtEn= 1.26D-02
 Coeff-Com:  0.100D+01
 Coeff-En:   0.100D+01
 Coeff:      0.100D+01
 Gap=     1.480 Goal=   None    Shift=    0.000
 GapD=    1.480 DampG=2.000 DampE=1.000 DampFc=2.0000 IDamp=-1.
 RMSDP=8.66D-05 MaxDP=9.49D-04              OVMax= 2.87D-03

 Cycle   2  Pass 1  IDiag  1:
 E= -76.3236704990375     Delta-E=       -0.000038050871 Rises=F Damp=F
 DIIS: error= 6.45D-04 at cycle   2 NSaved=   2.
 NSaved= 2 IEnMin= 2 EnMin= -76.3236704990375     IErMin= 2 ErrMin= 6.45D-04
 ErrMax= 6.45D-04  0.00D+00 EMaxC= 1.00D-01 BMatC= 1.25D-05 BMatP= 6.28D-05
 IDIUse=3 WtCom= 9.94D-01 WtEn= 6.45D-03
 Coeff-Com:  0.226D+00 0.774D+00
 Coeff-En:   0.000D+00 0.100D+01
 Coeff:      0.225D+00 0.775D+00
 Gap=     0.463 Goal=   None    Shift=    0.000
 RMSDP=3.60D-05 MaxDP=8.28D-04 DE=-3.81D-05 OVMax= 1.13D-03

 Cycle   3  Pass 1  IDiag  1:
 E= -76.3236758735711     Delta-E=       -0.000005374534 Rises=F Damp=F
 DIIS: error= 3.16D-04 at cycle   3 NSaved=   3.
 NSaved= 3 IEnMin= 3 EnMin= -76.3236758735711     IErMin= 3 ErrMin= 3.16D-04
 ErrMax= 3.16D-04  0.00D+00 EMaxC= 1.00D-01 BMatC= 3.85D-06 BMatP= 1.25D-05
 IDIUse=3 WtCom= 9.97D-01 WtEn= 3.16D-03
 Coeff-Com: -0.163D-01 0.348D+00 0.668D+00
 Coeff-En:   0.000D+00 0.190D+00 0.810D+00
 Coeff:     -0.162D-01 0.348D+00 0.669D+00
 Gap=     0.463 Goal=   None    Shift=    0.000
 RMSDP=1.37D-05 MaxDP=2.10D-04 DE=-5.37D-06 OVMax= 5.72D-04

 Cycle   4  Pass 1  IDiag  1:
 E= -76.3236783669332     Delta-E=       -0.000002493362 Rises=F Damp=F
 DIIS: error= 3.54D-05 at cycle   4 NSaved=   4.
 NSaved= 4 IEnMin= 4 EnMin= -76.3236783669332     IErMin= 4 ErrMin= 3.54D-05
 ErrMax= 3.54D-05  0.00D+00 EMaxC= 1.00D-01 BMatC= 3.42D-08 BMatP= 3.85D-06
 IDIUse=1 WtCom= 1.00D+00 WtEn= 0.00D+00
 Coeff-Com: -0.922D-02 0.152D-01 0.100D+00 0.894D+00
 Coeff:     -0.922D-02 0.152D-01 0.100D+00 0.894D+00
 Gap=     0.463 Goal=   None    Shift=    0.000
 RMSDP=2.22D-06 MaxDP=2.92D-05 DE=-2.49D-06 OVMax= 9.07D-05

 Cycle   5  Pass 1  IDiag  1:
 E= -76.3236784043899     Delta-E=       -0.000000037457 Rises=F Damp=F
 DIIS: error= 5.75D-06 at cycle   5 NSaved=   5.
 NSaved= 5 IEnMin= 5 EnMin= -76.3236784043899     IErMin= 5 ErrMin= 5.75D-06
 ErrMax= 5.75D-06  0.00D+00 EMaxC= 1.00D-01 BMatC= 1.03D-09 BMatP= 3.42D-08
 IDIUse=1 WtCom= 1.00D+00 WtEn= 0.00D+00
 Coeff-Com:  0.184D-02-0.211D-01-0.437D-01-0.824D-01 0.115D+01
 Coeff:      0.184D-02-0.211D-01-0.437D-01-0.824D-01 0.115D+01
 Gap=     0.463 Goal=   None    Shift=    0.000
 RMSDP=9.31D-07 MaxDP=1.30D-05 DE=-3.75D-08 OVMax= 4.35D-05

 Cycle   6  Pass 1  IDiag  1:
 E= -76.3236784068279     Delta-E=       -0.000000002438 Rises=F Damp=F
 DIIS: error= 6.98D-07 at cycle   6 NSaved=   6.
 NSaved= 6 IEnMin= 6 EnMin= -76.3236784068279     IErMin= 6 ErrMin= 6.98D-07
 ErrMax= 6.98D-07  0.00D+00 EMaxC= 1.00D-01 BMatC= 1.16D-11 BMatP= 1.03D-09
 IDIUse=1 WtCom= 1.00D+00 WtEn= 0.00D+00
 Coeff-Com: -0.114D-03 0.257D-02 0.508D-02-0.175D-02-0.175D+00 0.117D+01
 Coeff:     -0.114D-03 0.257D-02 0.508D-02-0.175D-02-0.175D+00 0.117D+01
 Gap=     0.463 Goal=   None    Shift=    0.000
 RMSDP=1.08D-07 MaxDP=1.83D-06 DE=-2.44D-09 OVMax= 4.42D-06

 Cycle   7  Pass 1  IDiag  1:
 E= -76.3236784068574     Delta-E=       -0.000000000030 Rises=F Damp=F
 DIIS: error= 6.67D-08 at cycle   7 NSaved=   7.
 NSaved= 7 IEnMin= 7 EnMin= -76.3236784068574     IErMin= 7 ErrMin= 6.67D-08
 ErrMax= 6.67D-08  0.00D+00 EMaxC= 1.00D-01 BMatC= 1.30D-13 BMatP= 1.16D-11
 IDIUse=1 WtCom= 1.00D+00 WtEn= 0.00D+00
 Coeff-Com: -0.654D-05-0.662D-04-0.198D-03 0.548D-03 0.135D-01-0.184D+00
 Coeff-Com:  0.117D+01
 Coeff:     -0.654D-05-0.662D-04-0.198D-03 0.548D-03 0.135D-01-0.184D+00
 Coeff:      0.117D+01
 Gap=     0.463 Goal=   None    Shift=    0.000
 RMSDP=7.95D-09 MaxDP=1.07D-07 DE=-2.95D-11 OVMax= 2.96D-07

 SCF Done:  E(RB2PLYPD3) =  -76.3236784069     A.U. after    7 cycles
            NFock=  7  Conv=0.79D-08     -V/T= 2.0033
 KE= 7.607135302883D+01 PE=-1.991875105983D+02 EE= 3.762201458755D+01
 Leave Link  502 at Wed Aug 30 11:24:04 2017, MaxMem=  2684354560 cpu:         4.3
 (Enter /soft/gaussian/09-d.01/g09/l801.exe)
 DoSCS=T DFT=T ScalE2(SS,OS)=  0.270000  0.270000
 ExpMin= 1.03D-01 ExpMax= 1.53D+04 ExpMxC= 5.22D+02 IAcc=3 IRadAn=         5 AccDes= 0.00D+00
 HarFok:  IExCor=  205 AccDes= 0.00D+00 IRadAn=         5 IDoV=-2 UseB2=F ITyADJ=14
 ICtDFT= 12500011 ScaDFX=  1.000000  1.000000  1.000000  1.000000
 Largest valence mixing into a core orbital is  6.72D-05
 Largest core mixing into a valence orbital is  9.78D-06
 Range of M.O.s used for correlation:     2    58
 NBasis=    58 NAE=     5 NBE=     5 NFC=     1 NFV=     0
 NROrb=     57 NOA=     4 NOB=     4 NVA=    53 NVB=    53
 Leave Link  801 at Wed Aug 30 11:24:04 2017, MaxMem=  2684354560 cpu:         0.3
 (Enter /soft/gaussian/09-d.01/g09/l906.exe)
 DoSCS=T DFT=T ScalE2(SS,OS)=  0.270000  0.270000
 Frozen-core derivative calculation, NFC=   1 NFV=   0.
 FulOut=F Deriv=T AODrv=T NAtomX=     3
   MMem=       18183  MDisk=           4 MDiskD=           4
  W3Min=       18850 MinDsk=      107395 NBas6D=          65
 NBas2D=        2271    NTT=        2145    LW2=     3500000
    MDV=  2684305632 MDiskM=      206331 NBas2p=        2271
 Fully direct method using O(ONN) memory.
 IMap=   1   2   3   4   5
 JobTyp=1 Pass  1:  I=   2 to   5 NPSUse= 10 ParTrn=T ParDer=T DoDerP=T.
 Spin components of T(2) and E(2):
     alpha-alpha T2 =       0.1126452131D-01 E2=     -0.1021278408D-01
     alpha-beta  T2 =       0.6598196762D-01 E2=     -0.6307742635D-01
     beta-beta   T2 =       0.1126452131D-01 E2=     -0.1021278408D-01
 The integrals were generated   1 times.
 E2(B2PLYPD3) =    -0.8350299450D-01 E(B2PLYPD3) =    -0.76407181401358D+02
 Leave Link  906 at Wed Aug 30 11:24:04 2017, MaxMem=  2684354560 cpu:         2.6
 (Enter /soft/gaussian/09-d.01/g09/l1002.exe)
 Minotr:  Closed shell wavefunction.
          Computing MP2/KS-MP2 derivatives.
          Using Z-Vector for PSCF gradient.
          Skipping F1 and S1 gradient terms here.
          IDoAtm=111
          Frozen-core window.
          Direct CPHF calculation.
          Differentiating once with respect to electric field.
                with respect to dipole field.
          Differentiating once with respect to nuclear coordinates.
          Requested convergence is 1.0D-10 RMS, and 1.0D-09 maximum.
          NewPWx=F KeepS1=T KeepF1=T KeepIn=T MapXYZ=F SortEE=F KeepMc=T.
          MDV=    2684354469 using IRadAn=       5.
 Using stored XC quadrature information.
 Keep R1 ints in memory in canonical form, NReq=3435324.
 FoFCou: FMM=F IPFlag=           0 FMFlag=           0 FMFlg1=           0
         NFxFlg=           0 DoJE=F BraDBF=F KetDBF=F FulRan=T
         wScrn=  0.000000 ICntrl=     600 IOpCl=  0 I1Cent=           0 NGrid=           0
         NMat0=    1 NMatS0=   1711 NMatT0=    0 NMatD0=    1 NMtDS0=    0 NMtDT0=    0
 Symmetry not used in FoFCou.
          Solving linear equations separately, MaxMat=       0.
          There are     1 degrees of freedom in the 1st order CPHF.  IDoFFX=0 NUNeed=     1.
 LinEq1:  Iter=  0 NonCon=     1 RMS=1.63D-03 Max=1.01D-02 NDo=     1
 AX will form     1 AO Fock derivatives at one time.
 LinEq1:  Iter=  1 NonCon=     1 RMS=2.58D-04 Max=2.59D-03 NDo=     1
 LinEq1:  Iter=  2 NonCon=     1 RMS=1.85D-04 Max=1.91D-03 NDo=     1
 LinEq1:  Iter=  3 NonCon=     1 RMS=3.11D-05 Max=2.05D-04 NDo=     1
 LinEq1:  Iter=  4 NonCon=     1 RMS=5.96D-06 Max=3.93D-05 NDo=     1
 LinEq1:  Iter=  5 NonCon=     1 RMS=5.18D-07 Max=4.39D-06 NDo=     1
 LinEq1:  Iter=  6 NonCon=     1 RMS=5.63D-08 Max=3.81D-07 NDo=     1
 LinEq1:  Iter=  7 NonCon=     1 RMS=4.12D-09 Max=3.68D-08 NDo=     1
 LinEq1:  Iter=  8 NonCon=     1 RMS=2.01D-10 Max=1.78D-09 NDo=     1
 LinEq1:  Iter=  9 NonCon=     0 RMS=1.06D-11 Max=7.24D-11 NDo=     1
 Linear equations converged to 1.000D-10 1.000D-09 after     9 iterations.
 End of Minotr F.D. properties file   721 does not exist.
 End of Minotr F.D. properties file   722 does not exist.
 End of Minotr F.D. properties file   788 does not exist.
 Leave Link 1002 at Wed Aug 30 11:24:05 2017, MaxMem=  2684354560 cpu:         8.3
 (Enter /soft/gaussian/09-d.01/g09/l701.exe)
 Compute integral first derivatives.
 ... and contract with generalized density number  2.
 R6Disp: Adding Grimme-D3(BJ) dispersion energy 1st derivatives to the gradient.
 Leave Link  701 at Wed Aug 30 11:24:05 2017, MaxMem=  2684354560 cpu:         1.3
 (Enter /soft/gaussian/09-d.01/g09/l702.exe)
 L702 exits ... SP integral derivatives will be done elsewhere.
 Leave Link  702 at Wed Aug 30 11:24:05 2017, MaxMem=  2684354560 cpu:         0.1
 (Enter /soft/gaussian/09-d.01/g09/l703.exe)
 Compute integral first derivatives, UseDBF=F ICtDFT=           0.
 Integral derivatives from FoFJK, PRISM(SPDF).
 Calling FoFJK, ICntrl=  10002127 FMM=F ISym2X=0 I1Cent= 0 IOpClX= 0 NMat=1 NMatS=1 NMatT=0.
 FoFJK:  IHMeth= 1 ICntrl=10002127 DoSepK=F KAlg= 0 I1Cent=   0 FoldK=F
 IRaf=         0 NMat=   1 IRICut=       1 DoRegI=T DoRafI=F ISym2E= 0.
 FoFCou: FMM=F IPFlag=           0 FMFlag=      100000 FMFlg1=         800
         NFxFlg=           0 DoJE=F BraDBF=F KetDBF=F FulRan=T
         wScrn=  0.000000 ICntrl=10002127 IOpCl=  0 I1Cent=           0 NGrid=           0
         NMat0=    1 NMatS0=      1 NMatT0=    0 NMatD0=    1 NMtDS0=    0 NMtDT0=    0
 Symmetry not used in FoFCou.
 Leave Link  703 at Wed Aug 30 11:24:06 2017, MaxMem=  2684354560 cpu:         4.1
 (Enter /soft/gaussian/09-d.01/g09/l716.exe)
 Dipole        = 5.98826386D-01 1.16079630D-16 4.68022758D-01
 -------------------------------------------------------------------
 Center     Atomic                   Forces (Hartrees/Bohr)
 Number     Number              X              Y              Z
 -------------------------------------------------------------------
      1        8           0.000975470    0.000000000    0.000762321
      2        1          -0.000612133    0.000000000   -0.000222034
      3        1          -0.000363336    0.000000000   -0.000540286
 -------------------------------------------------------------------
 Cartesian Forces:  Max     0.000975470 RMS     0.000514307
 Leave Link  716 at Wed Aug 30 11:24:06 2017, MaxMem=  2684354560 cpu:         0.2
 (Enter /soft/gaussian/09-d.01/g09/l103.exe)

 GradGradGradGradGradGradGradGradGradGradGradGradGradGradGradGradGradGrad
 Berny optimization.
 Using GEDIIS/GDIIS optimizer.
 FormGI is forming the generalized inverse of G from B-inverse, IUseBI=4.
 Internal  Forces:  Max     0.001109719 RMS     0.000666057
 Search for a local minimum.
 Step number   2 out of a maximum of   50
 All quantities printed in internal units (Hartrees-Bohrs-Radians)
 RMS Force = .66606D-03 SwitMx=.10000D-02 MixMth= 2
 Mixed Optimization -- En-DIIS/RFO-DIIS
 Update second derivatives using D2CorX and points    1    2
 DE= -1.63D-04 DEPred=-1.59D-04 R= 1.02D+00
 TightC=F SS=  1.41D+00  RLast= 2.45D-02 DXNew= 5.0454D-01 7.3431D-02
 Trust test= 1.02D+00 RLast= 2.45D-02 DXMaxT set to 3.00D-01
 The second derivative matrix:
                          R1        R2        A1
           R1           0.52673
           R2          -0.00909   0.52673
           A1           0.03169   0.03169   0.16733
 ITU=  1  0
 Use linear search instead of GDIIS.
     Eigenvalues ---    0.16169   0.52329   0.53582
 RFO step:  Lambda=-8.04113651D-06 EMin= 1.61689160D-01
 Quartic linear search produced a step of  0.01342.
 Iteration  1 RMS(Cart)=  0.00369165 RMS(Int)=  0.00000915
 Iteration  2 RMS(Cart)=  0.00000864 RMS(Int)=  0.00000000
 Iteration  3 RMS(Cart)=  0.00000000 RMS(Int)=  0.00000000
 ITry= 1 IFail=0 DXMaxC= 3.66D-03 DCOld= 1.00D+10 DXMaxT= 3.00D-01 DXLimC= 3.00D+00 Rises=F
 Variable       Old X    -DE/DX   Delta X   Delta X   Delta X     New X
                                 (Linear)    (Quad)   (Total)
    R1        1.81397  -0.00022  -0.00023  -0.00062  -0.00085   1.81312
    R2        1.81397  -0.00022  -0.00023  -0.00062  -0.00085   1.81312
    A1        1.81181   0.00111  -0.00004   0.00700   0.00696   1.81876
         Item               Value     Threshold  Converged?
 Maximum Force            0.001110     0.000450     NO 
 RMS     Force            0.000666     0.000300     NO 
 Maximum Displacement     0.003660     0.001800     NO 
 RMS     Displacement     0.003687     0.001200     NO 
 Predicted change in Energy=-4.050714D-06
 Lowest energy point so far.  Saving SCF results.
 GradGradGradGradGradGradGradGradGradGradGradGradGradGradGradGradGradGrad

 Leave Link  103 at Wed Aug 30 11:24:06 2017, MaxMem=  2684354560 cpu:         0.0
 (Enter /soft/gaussian/09-d.01/g09/l202.exe)
                          Input orientation:                          
 ---------------------------------------------------------------------
 Center     Atomic      Atomic             Coordinates (Angstroms)
 Number     Number       Type             X           Y           Z
 ---------------------------------------------------------------------
      1          8           0        0.003874    0.000000    0.003028
      2          1           0        0.001970    0.000000    0.962486
      3          1           0        0.934454    0.000000   -0.230609
 ---------------------------------------------------------------------
                    Distance matrix (angstroms):
                    1          2          3
     1  O    0.000000
     2  H    0.959460   0.000000
     3  H    0.959460   1.514266   0.000000
 Symmetry turned off by external request.
 Stoichiometry    H2O
 Framework group  CS[SG(H2O)]
 Deg. of freedom     3
 Full point group                 CS      NOp   2
 Rotational constants (GHZ):    812.8783517    437.3788337    284.3701197
 Leave Link  202 at Wed Aug 30 11:24:06 2017, MaxMem=  2684354560 cpu:         0.1
 (Enter /soft/gaussian/09-d.01/g09/l301.exe)
 Standard basis: CC-pVTZ (5D, 7F)
 Ernie: Thresh=  0.10000D-02 Tol=  0.10000D-05 Strict=F.
 Ernie:  3 primitive shells out of 42 were deleted.
    58 basis functions,    86 primitive gaussians,    65 cartesian basis functions
     5 alpha electrons        5 beta electrons
       nuclear repulsion energy         9.1740427718 Hartrees.
 IExCor=  419 DFT=T Ex+Corr=B2PLYPD3 ExCW=0 ScaHFX=  0.530000
 ScaDFX=  0.470000  0.470000  0.730000  0.730000 ScalE2=  0.270000  0.270000
 IRadAn=      5 IRanWt=     -1 IRanGd=            0 ICorTp=0 IEmpDi=141
 NAtoms=    3 NActive=    3 NUniq=    3 SFac= 1.00D+00 NAtFMM=   60 NAOKFM=F Big=F
 Integral buffers will be    131072 words long.
 Regular integral format.
 Two-electron integral symmetry is turned off.
 R6Disp:  Grimme-D3(BJ) Dispersion energy=       -0.0002342956 Hartrees.
 Nuclear repulsion after empirical dispersion term =        9.1738084762 Hartrees.
 Leave Link  301 at Wed Aug 30 11:24:06 2017, MaxMem=  2684354560 cpu:         0.3
 (Enter /soft/gaussian/09-d.01/g09/l302.exe)
 NPDir=0 NMtPBC=     1 NCelOv=     1 NCel=       1 NClECP=     1 NCelD=      1
         NCelK=      1 NCelE2=     1 NClLst=     1 CellRange=     0.0.
 One-electron integrals computed using PRISM.
 NBasis=    58 RedAO= T EigKep=  2.54D-03  NBF=    58
 NBsUse=    58 1.00D-06 EigRej= -1.00D+00 NBFU=    58
 Precomputing XC quadrature grid using
 IXCGrd= 4 IRadAn=           5 IRanWt=          -1 IRanGd=           0 AccXCQ= 0.00D+00.
 Generated NRdTot=       0 NPtTot=           0 NUsed=           0 NTot=          32
 NSgBfM=    65    65    65    65    65 MxSgAt=     3 MxSgA2=     3.
 Leave Link  302 at Wed Aug 30 11:24:06 2017, MaxMem=  2684354560 cpu:         1.2
 (Enter /soft/gaussian/09-d.01/g09/l303.exe)
 DipDrv:  MaxL=1.
 Leave Link  303 at Wed Aug 30 11:24:06 2017, MaxMem=  2684354560 cpu:         0.2
 (Enter /soft/gaussian/09-d.01/g09/l401.exe)
 Initial guess from the checkpoint file:  "/scratch/sjklipp/Gau-62015.chk"
 B after Tr=     0.002020    0.000000    0.001579
         Rot=    1.000000    0.000000    0.000000    0.000000 Ang=   0.00 deg.
 Guess basis will be translated and rotated to current coordinates.
 JPrj=2 DoOrth=T DoCkMO=T.
 Leave Link  401 at Wed Aug 30 11:24:06 2017, MaxMem=  2684354560 cpu:         0.5
 (Enter /soft/gaussian/09-d.01/g09/l502.exe)
 Closed shell SCF:
 Using DIIS extrapolation, IDIIS=  1040.
 Two-electron integral symmetry not used.
 Keep R1 ints in memory in canonical form, NReq=3457515.
 IVT=       32271 IEndB=       32271 NGot=  2684354560 MDV=  2682857674
 LenX=  2682857674 LenY=  2682853008
 Requested convergence on RMS density matrix=1.00D-08 within 128 cycles.
 Requested convergence on MAX density matrix=1.00D-06.
 Requested convergence on             energy=1.00D-06.
 No special actions if energy rises.
 FoFCou: FMM=F IPFlag=           0 FMFlag=           0 FMFlg1=           0
         NFxFlg=           0 DoJE=F BraDBF=F KetDBF=F FulRan=T
         wScrn=  0.000000 ICntrl=     600 IOpCl=  0 I1Cent=           0 NGrid=           0
         NMat0=    1 NMatS0=   1711 NMatT0=    0 NMatD0=    1 NMtDS0=    0 NMtDT0=    0
 Symmetry not used in FoFCou.

 Cycle   1  Pass 1  IDiag  1:
 E= -76.3237094832413    
 DIIS: error= 2.25D-04 at cycle   1 NSaved=   1.
 NSaved= 1 IEnMin= 1 EnMin= -76.3237094832413     IErMin= 1 ErrMin= 2.25D-04
 ErrMax= 2.25D-04  0.00D+00 EMaxC= 1.00D-01 BMatC= 2.38D-06 BMatP= 2.38D-06
 IDIUse=3 WtCom= 9.98D-01 WtEn= 2.25D-03
 Coeff-Com:  0.100D+01
 Coeff-En:   0.100D+01
 Coeff:      0.100D+01
 Gap=     1.472 Goal=   None    Shift=    0.000
 RMSDP=2.46D-05 MaxDP=3.93D-04              OVMax= 5.60D-04

 Cycle   2  Pass 1  IDiag  1:
 E= -76.3237115489610     Delta-E=       -0.000002065720 Rises=F Damp=F
 DIIS: error= 5.46D-05 at cycle   2 NSaved=   2.
 NSaved= 2 IEnMin= 2 EnMin= -76.3237115489610     IErMin= 2 ErrMin= 5.46D-05
 ErrMax= 5.46D-05  0.00D+00 EMaxC= 1.00D-01 BMatC= 1.09D-07 BMatP= 2.38D-06
 IDIUse=1 WtCom= 1.00D+00 WtEn= 0.00D+00
 Coeff-Com: -0.268D-01 0.103D+01
 Coeff:     -0.268D-01 0.103D+01
 Gap=     0.463 Goal=   None    Shift=    0.000
 RMSDP=7.17D-06 MaxDP=9.81D-05 DE=-2.07D-06 OVMax= 1.43D-04

 Cycle   3  Pass 1  IDiag  1:
 E= -76.3237115945776     Delta-E=       -0.000000045617 Rises=F Damp=F
 DIIS: error= 4.88D-05 at cycle   3 NSaved=   3.
 NSaved= 3 IEnMin= 3 EnMin= -76.3237115945776     IErMin= 3 ErrMin= 4.88D-05
 ErrMax= 4.88D-05  0.00D+00 EMaxC= 1.00D-01 BMatC= 8.47D-08 BMatP= 1.09D-07
 IDIUse=1 WtCom= 1.00D+00 WtEn= 0.00D+00
 Coeff-Com: -0.540D-01 0.501D+00 0.553D+00
 Coeff:     -0.540D-01 0.501D+00 0.553D+00
 Gap=     0.463 Goal=   None    Shift=    0.000
 RMSDP=2.15D-06 MaxDP=3.66D-05 DE=-4.56D-08 OVMax= 7.04D-05

 Cycle   4  Pass 1  IDiag  1:
 E= -76.3237116481901     Delta-E=       -0.000000053613 Rises=F Damp=F
 DIIS: error= 4.06D-06 at cycle   4 NSaved=   4.
 NSaved= 4 IEnMin= 4 EnMin= -76.3237116481901     IErMin= 4 ErrMin= 4.06D-06
 ErrMax= 4.06D-06  0.00D+00 EMaxC= 1.00D-01 BMatC= 5.45D-10 BMatP= 8.47D-08
 IDIUse=1 WtCom= 1.00D+00 WtEn= 0.00D+00
 Coeff-Com:  0.136D-02-0.491D-01 0.187D-01 0.103D+01
 Coeff:      0.136D-02-0.491D-01 0.187D-01 0.103D+01
 Gap=     0.463 Goal=   None    Shift=    0.000
 RMSDP=5.97D-07 MaxDP=8.30D-06 DE=-5.36D-08 OVMax= 1.34D-05

 Cycle   5  Pass 1  IDiag  1:
 E= -76.3237116488480     Delta-E=       -0.000000000658 Rises=F Damp=F
 DIIS: error= 6.82D-07 at cycle   5 NSaved=   5.
 NSaved= 5 IEnMin= 5 EnMin= -76.3237116488480     IErMin= 5 ErrMin= 6.82D-07
 ErrMax= 6.82D-07  0.00D+00 EMaxC= 1.00D-01 BMatC= 1.68D-11 BMatP= 5.45D-10
 IDIUse=1 WtCom= 1.00D+00 WtEn= 0.00D+00
 Coeff-Com:  0.201D-02-0.262D-01-0.168D-01 0.138D+00 0.903D+00
 Coeff:      0.201D-02-0.262D-01-0.168D-01 0.138D+00 0.903D+00
 Gap=     0.463 Goal=   None    Shift=    0.000
 RMSDP=1.14D-07 MaxDP=2.23D-06 DE=-6.58D-10 OVMax= 3.31D-06

 Cycle   6  Pass 1  IDiag  1:
 E= -76.3237116488709     Delta-E=       -0.000000000023 Rises=F Damp=F
 DIIS: error= 1.19D-07 at cycle   6 NSaved=   6.
 NSaved= 6 IEnMin= 6 EnMin= -76.3237116488709     IErMin= 6 ErrMin= 1.19D-07
 ErrMax= 1.19D-07  0.00D+00 EMaxC= 1.00D-01 BMatC= 3.95D-13 BMatP= 1.68D-11
 IDIUse=1 WtCom= 1.00D+00 WtEn= 0.00D+00
 Coeff-Com: -0.296D-03 0.498D-02 0.249D-02-0.493D-01-0.154D+00 0.120D+01
 Coeff:     -0.296D-03 0.498D-02 0.249D-02-0.493D-01-0.154D+00 0.120D+01
 Gap=     0.463 Goal=   None    Shift=    0.000
 RMSDP=1.97D-08 MaxDP=2.75D-07 DE=-2.29D-11 OVMax= 9.28D-07

 Cycle   7  Pass 1  IDiag  1:
 E= -76.3237116488717     Delta-E=       -0.000000000001 Rises=F Damp=F
 DIIS: error= 1.43D-08 at cycle   7 NSaved=   7.
 NSaved= 7 IEnMin= 7 EnMin= -76.3237116488717     IErMin= 7 ErrMin= 1.43D-08
 ErrMax= 1.43D-08  0.00D+00 EMaxC= 1.00D-01 BMatC= 5.20D-15 BMatP= 3.95D-13
 IDIUse=1 WtCom= 1.00D+00 WtEn= 0.00D+00
 Coeff-Com:  0.812D-05-0.222D-03-0.663D-04 0.298D-02 0.108D-01-0.174D+00
 Coeff-Com:  0.116D+01
 Coeff:      0.812D-05-0.222D-03-0.663D-04 0.298D-02 0.108D-01-0.174D+00
 Coeff:      0.116D+01
 Gap=     0.463 Goal=   None    Shift=    0.000
 RMSDP=2.15D-09 MaxDP=1.94D-08 DE=-7.82D-13 OVMax= 8.97D-08

 SCF Done:  E(RB2PLYPD3) =  -76.3237116489     A.U. after    7 cycles
            NFock=  7  Conv=0.22D-08     -V/T= 2.0033
 KE= 7.607234515183D+01 PE=-1.991955741627D+02 EE= 3.762570888580D+01
 Leave Link  502 at Wed Aug 30 11:24:07 2017, MaxMem=  2684354560 cpu:         4.4
 (Enter /soft/gaussian/09-d.01/g09/l801.exe)
 DoSCS=T DFT=T ScalE2(SS,OS)=  0.270000  0.270000
 ExpMin= 1.03D-01 ExpMax= 1.53D+04 ExpMxC= 5.22D+02 IAcc=3 IRadAn=         5 AccDes= 0.00D+00
 HarFok:  IExCor=  205 AccDes= 0.00D+00 IRadAn=         5 IDoV=-2 UseB2=F ITyADJ=14
 ICtDFT= 12500011 ScaDFX=  1.000000  1.000000  1.000000  1.000000
 Largest valence mixing into a core orbital is  6.71D-05
 Largest core mixing into a valence orbital is  9.78D-06
 Range of M.O.s used for correlation:     2    58
 NBasis=    58 NAE=     5 NBE=     5 NFC=     1 NFV=     0
 NROrb=     57 NOA=     4 NOB=     4 NVA=    53 NVB=    53
 Leave Link  801 at Wed Aug 30 11:24:07 2017, MaxMem=  2684354560 cpu:         0.3
 (Enter /soft/gaussian/09-d.01/g09/l906.exe)
 DoSCS=T DFT=T ScalE2(SS,OS)=  0.270000  0.270000
 Frozen-core derivative calculation, NFC=   1 NFV=   0.
 FulOut=F Deriv=T AODrv=T NAtomX=     3
   MMem=       18183  MDisk=           4 MDiskD=           4
  W3Min=       18850 MinDsk=      107395 NBas6D=          65
 NBas2D=        2271    NTT=        2145    LW2=     3500000
    MDV=  2684305632 MDiskM=      206331 NBas2p=        2271
 Fully direct method using O(ONN) memory.
 IMap=   1   2   3   4   5
 JobTyp=1 Pass  1:  I=   2 to   5 NPSUse= 10 ParTrn=T ParDer=T DoDerP=T.
 Spin components of T(2) and E(2):
     alpha-alpha T2 =       0.1125326038D-01 E2=     -0.1020914071D-01
     alpha-beta  T2 =       0.6591190035D-01 E2=     -0.6305561887D-01
     beta-beta   T2 =       0.1125326038D-01 E2=     -0.1020914071D-01
 The integrals were generated   1 times.
 E2(B2PLYPD3) =    -0.8347390028D-01 E(B2PLYPD3) =    -0.76407185549152D+02
 Leave Link  906 at Wed Aug 30 11:24:07 2017, MaxMem=  2684354560 cpu:         2.7
 (Enter /soft/gaussian/09-d.01/g09/l1002.exe)
 Minotr:  Closed shell wavefunction.
          Computing MP2/KS-MP2 derivatives.
          Using Z-Vector for PSCF gradient.
          Skipping F1 and S1 gradient terms here.
          IDoAtm=111
          Frozen-core window.
          Direct CPHF calculation.
          Differentiating once with respect to electric field.
                with respect to dipole field.
          Differentiating once with respect to nuclear coordinates.
          Requested convergence is 1.0D-10 RMS, and 1.0D-09 maximum.
          NewPWx=F KeepS1=T KeepF1=T KeepIn=T MapXYZ=F SortEE=F KeepMc=T.
          MDV=    2684354469 using IRadAn=       5.
 Using stored XC quadrature information.
 Keep R1 ints in memory in canonical form, NReq=3435324.
 FoFCou: FMM=F IPFlag=           0 FMFlag=           0 FMFlg1=           0
         NFxFlg=           0 DoJE=F BraDBF=F KetDBF=F FulRan=T
         wScrn=  0.000000 ICntrl=     600 IOpCl=  0 I1Cent=           0 NGrid=           0
         NMat0=    1 NMatS0=   1711 NMatT0=    0 NMatD0=    1 NMtDS0=    0 NMtDT0=    0
 Symmetry not used in FoFCou.
          Solving linear equations separately, MaxMat=       0.
          There are     1 degrees of freedom in the 1st order CPHF.  IDoFFX=0 NUNeed=     1.
 LinEq1:  Iter=  0 NonCon=     1 RMS=1.62D-03 Max=1.00D-02 NDo=     1
 AX will form     1 AO Fock derivatives at one time.
 LinEq1:  Iter=  1 NonCon=     1 RMS=2.58D-04 Max=2.58D-03 NDo=     1
 LinEq1:  Iter=  2 NonCon=     1 RMS=1.84D-04 Max=1.90D-03 NDo=     1
 LinEq1:  Iter=  3 NonCon=     1 RMS=3.08D-05 Max=2.03D-04 NDo=     1
 LinEq1:  Iter=  4 NonCon=     1 RMS=5.91D-06 Max=3.91D-05 NDo=     1
 LinEq1:  Iter=  5 NonCon=     1 RMS=5.16D-07 Max=4.37D-06 NDo=     1
 LinEq1:  Iter=  6 NonCon=     1 RMS=5.59D-08 Max=3.77D-07 NDo=     1
 LinEq1:  Iter=  7 NonCon=     1 RMS=4.08D-09 Max=3.64D-08 NDo=     1
 LinEq1:  Iter=  8 NonCon=     1 RMS=1.98D-10 Max=1.75D-09 NDo=     1
 LinEq1:  Iter=  9 NonCon=     0 RMS=1.03D-11 Max=7.15D-11 NDo=     1
 Linear equations converged to 1.000D-10 1.000D-09 after     9 iterations.
 End of Minotr F.D. properties file   721 does not exist.
 End of Minotr F.D. properties file   722 does not exist.
 End of Minotr F.D. properties file   788 does not exist.
 Leave Link 1002 at Wed Aug 30 11:24:08 2017, MaxMem=  2684354560 cpu:         8.2
 (Enter /soft/gaussian/09-d.01/g09/l701.exe)
 Compute integral first derivatives.
 ... and contract with generalized density number  2.
 R6Disp: Adding Grimme-D3(BJ) dispersion energy 1st derivatives to the gradient.
 Leave Link  701 at Wed Aug 30 11:24:08 2017, MaxMem=  2684354560 cpu:         1.2
 (Enter /soft/gaussian/09-d.01/g09/l702.exe)
 L702 exits ... SP integral derivatives will be done elsewhere.
 Leave Link  702 at Wed Aug 30 11:24:08 2017, MaxMem=  2684354560 cpu:         0.1
 (Enter /soft/gaussian/09-d.01/g09/l703.exe)
 Compute integral first derivatives, UseDBF=F ICtDFT=           0.
 Integral derivatives from FoFJK, PRISM(SPDF).
 Calling FoFJK, ICntrl=  10002127 FMM=F ISym2X=0 I1Cent= 0 IOpClX= 0 NMat=1 NMatS=1 NMatT=0.
 FoFJK:  IHMeth= 1 ICntrl=10002127 DoSepK=F KAlg= 0 I1Cent=   0 FoldK=F
 IRaf=         0 NMat=   1 IRICut=       1 DoRegI=T DoRafI=F ISym2E= 0.
 FoFCou: FMM=F IPFlag=           0 FMFlag=      100000 FMFlg1=         800
         NFxFlg=           0 DoJE=F BraDBF=F KetDBF=F FulRan=T
         wScrn=  0.000000 ICntrl=10002127 IOpCl=  0 I1Cent=           0 NGrid=           0
         NMat0=    1 NMatS0=      1 NMatT0=    0 NMatD0=    1 NMtDS0=    0 NMtDT0=    0
 Symmetry not used in FoFCou.
 Leave Link  703 at Wed Aug 30 11:24:08 2017, MaxMem=  2684354560 cpu:         4.0
 (Enter /soft/gaussian/09-d.01/g09/l716.exe)
 Dipole        = 5.97004693D-01 3.59865048D-16 4.66599009D-01
 -------------------------------------------------------------------
 Center     Atomic                   Forces (Hartrees/Bohr)
 Number     Number              X              Y              Z
 -------------------------------------------------------------------
      1        8           0.000015389    0.000000000    0.000011994
      2        1          -0.000017059    0.000000000    0.000005922
      3        1           0.000001670    0.000000000   -0.000017916
 -------------------------------------------------------------------
 Cartesian Forces:  Max     0.000017916 RMS     0.000010701
 Leave Link  716 at Wed Aug 30 11:24:08 2017, MaxMem=  2684354560 cpu:         0.2
 (Enter /soft/gaussian/09-d.01/g09/l103.exe)

 GradGradGradGradGradGradGradGradGradGradGradGradGradGradGradGradGradGrad
 Berny optimization.
 Using GEDIIS/GDIIS optimizer.
 FormGI is forming the generalized inverse of G from B-inverse, IUseBI=4.
 Internal  Forces:  Max     0.000030838 RMS     0.000018460
 Search for a local minimum.
 Step number   3 out of a maximum of   50
 All quantities printed in internal units (Hartrees-Bohrs-Radians)
 RMS Force = .18460D-04 SwitMx=.10000D-02 MixMth= 2
 Mixed Optimization -- En-DIIS/RFO-DIIS
 Swapping is turned off.
 Update second derivatives using D2CorX and points    1    2    3
 DE= -4.15D-06 DEPred=-4.05D-06 R= 1.02D+00
 TightC=F SS=  1.41D+00  RLast= 7.06D-03 DXNew= 5.0454D-01 2.1180D-02
 Trust test= 1.02D+00 RLast= 7.06D-03 DXMaxT set to 3.00D-01
 The second derivative matrix:
                          R1        R2        A1
           R1           0.52810
           R2          -0.00772   0.52810
           A1           0.03061   0.03061   0.16255
 ITU=  1  1  0
     Eigenvalues ---    0.15738   0.52554   0.53582
 En-DIIS/RFO-DIIS IScMMF=        0 using points:     3    2
 RFO step:  Lambda= 0.00000000D+00.
 NNeg= 0 NP= 2 Switch=  2.50D-03 Rises=F DC=  4.15D-06 SmlDif=  1.00D-05
 RMS Error=  0.4416175024D-04 NUsed= 2 EDIIS=F
 DidBck=F Rises=F RFO-DIIS coefs:    1.02589   -0.02589
 Iteration  1 RMS(Cart)=  0.00010744 RMS(Int)=  0.00000001
 Iteration  2 RMS(Cart)=  0.00000001 RMS(Int)=  0.00000000
 ITry= 1 IFail=0 DXMaxC= 1.11D-04 DCOld= 1.00D+10 DXMaxT= 3.00D-01 DXLimC= 3.00D+00 Rises=F
 Variable       Old X    -DE/DX   Delta X   Delta X   Delta X     New X
                                 (Linear)    (Quad)   (Total)
    R1        1.81312   0.00001  -0.00002   0.00002   0.00000   1.81312
    R2        1.81312   0.00001  -0.00002   0.00002   0.00000   1.81312
    A1        1.81876   0.00003   0.00018   0.00001   0.00019   1.81895
         Item               Value     Threshold  Converged?
 Maximum Force            0.000031     0.000450     YES
 RMS     Force            0.000018     0.000300     YES
 Maximum Displacement     0.000111     0.001800     YES
 RMS     Displacement     0.000107     0.001200     YES
 Predicted change in Energy=-2.925390D-09
 Optimization completed.
    -- Stationary point found.
                           ----------------------------
                           !   Optimized Parameters   !
                           ! (Angstroms and Degrees)  !
 --------------------------                            --------------------------
 ! Name  Definition              Value          Derivative Info.                !
 --------------------------------------------------------------------------------
 ! R1    R(1,2)                  0.9595         -DE/DX =    0.0                 !
 ! R2    R(1,3)                  0.9595         -DE/DX =    0.0                 !
 ! A1    A(2,1,3)              104.2074         -DE/DX =    0.0                 !
 --------------------------------------------------------------------------------
 Lowest energy point so far.  Saving SCF results.
 GradGradGradGradGradGradGradGradGradGradGradGradGradGradGradGradGradGrad

 Largest change from initial coordinates is atom    3       0.007 Angstoms.
 Leave Link  103 at Wed Aug 30 11:24:08 2017, MaxMem=  2684354560 cpu:         0.1
 (Enter /soft/gaussian/09-d.01/g09/l202.exe)
                          Input orientation:                          
 ---------------------------------------------------------------------
 Center     Atomic      Atomic             Coordinates (Angstroms)
 Number     Number       Type             X           Y           Z
 ---------------------------------------------------------------------
      1          8           0        0.003874    0.000000    0.003028
      2          1           0        0.001970    0.000000    0.962486
      3          1           0        0.934454    0.000000   -0.230609
 ---------------------------------------------------------------------
                    Distance matrix (angstroms):
                    1          2          3
     1  O    0.000000
     2  H    0.959460   0.000000
     3  H    0.959460   1.514266   0.000000
 Symmetry turned off by external request.
 Stoichiometry    H2O
 Framework group  CS[SG(H2O)]
 Deg. of freedom     3
 Full point group                 CS      NOp   2
 Rotational constants (GHZ):    812.8783517    437.3788337    284.3701197
 Leave Link  202 at Wed Aug 30 11:24:08 2017, MaxMem=  2684354560 cpu:         0.0
 (Enter /soft/gaussian/09-d.01/g09/l601.exe)
 Copying SCF densities to generalized density rwf, IOpCl= 0 IROHF=0.

 **********************************************************************

            Population analysis using the SCF density.

 **********************************************************************

 Alpha  occ. eigenvalues --  -19.72020  -1.14820  -0.60269  -0.46589  -0.39058
 Alpha virt. eigenvalues --    0.07271   0.14195   0.43840   0.49255   0.56396
 Alpha virt. eigenvalues --    0.66466   0.69406   0.69553   0.75317   0.84640
 Alpha virt. eigenvalues --    1.00800   1.08528   1.38218   1.41494   1.87685
 Alpha virt. eigenvalues --    1.90112   1.90761   2.00519   2.07083   2.38669
 Alpha virt. eigenvalues --    2.75481   3.17431   3.31172   3.39806   3.47804
 Alpha virt. eigenvalues --    3.55010   3.66944   3.70650   3.77524   3.82264
 Alpha virt. eigenvalues --    3.86245   3.95425   4.12253   4.16854   4.38372
 Alpha virt. eigenvalues --    4.44333   4.65238   4.91200   4.99725   5.26492
 Alpha virt. eigenvalues --    5.78565   6.29603   6.61782   6.62824   6.71296
 Alpha virt. eigenvalues --    6.72264   6.77312   6.86850   6.96348   7.15722
 Alpha virt. eigenvalues --    7.49755   7.97127  12.42493
          Condensed to atoms (all electrons):
               1          2          3
     1  O    7.739919   0.359183   0.359183
     2  H    0.359183   0.457926  -0.046252
     3  H    0.359183  -0.046252   0.457926
 Mulliken charges:
               1
     1  O   -0.458286
     2  H    0.229143
     3  H    0.229143
 Sum of Mulliken charges =   0.00000
 Mulliken charges with hydrogens summed into heavy atoms:
               1
     1  O    0.000000
 Electronic spatial extent (au):  <R**2>=             19.4188
 Charge=              0.0000 electrons
 Dipole moment (field-independent basis, Debye):
    X=              1.5556    Y=              0.0000    Z=              1.2158  Tot=              1.9744
 Quadrupole moment (field-independent basis, Debye-Ang):
   XX=             -5.1105   YY=             -7.3257   ZZ=             -4.7827
   XY=              0.0000   XZ=             -0.6583   YZ=              0.0000
 Traceless Quadrupole moment (field-independent basis, Debye-Ang):
   XX=              0.6291   YY=             -1.5860   ZZ=              0.9569
   XY=              0.0000   XZ=             -0.6583   YZ=              0.0000
 Octapole moment (field-independent basis, Debye-Ang**2):
  XXX=              0.2117  YYY=              0.0000  ZZZ=              0.6713  XYY=             -0.4989
  XXY=              0.0000  XXZ=             -0.8114  XZZ=             -0.3910  YZZ=              0.0000
  YYZ=             -0.3899  XYZ=              0.0000
 Hexadecapole moment (field-independent basis, Debye-Ang**3):
 XXXX=             -5.4883 YYYY=             -5.6939 ZZZZ=             -5.3423 XXXY=              0.0000
 XXXZ=             -0.3587 YYYX=              0.0000 YYYZ=              0.0000 ZZZX=              0.0655
 ZZZY=              0.0000 XXYY=             -2.1872 XXZZ=             -2.3379 YYZZ=             -2.2124
 XXYZ=              0.0000 YYXZ=              0.0506 ZZXY=              0.0000
 N-N= 9.173808476243D+00 E-N=-1.991955740542D+02  KE= 7.607234515183D+01
 No NMR shielding tensors so no spin-rotation constants.
 Leave Link  601 at Wed Aug 30 11:24:08 2017, MaxMem=  2684354560 cpu:         1.1
 (Enter /soft/gaussian/09-d.01/g09/l9999.exe)
 B after Tr=    -0.005125    0.000000   -0.004006
         Rot=    1.000000    0.000000    0.000000    0.000000 Ang=   0.00 deg.
 Final structure in terms of initial Z-matrix:
 O
 H,1,r2
 H,1,r3,2,a3
      Variables:
 r2=0.95946029
 r3=0.95946024
 a3=104.20741332
 1\1\ FUSION.LCRC.ANL.GOV-B431\FOpt\RB2PLYPD3-FC\CC-pVTZ\H2O1\SJKLIPP\3
 0-Aug-2017\0\\#P b2plypd3/cc-pvtz opt=(maxcyc=50) int=ultrafine nosym\
 \O\\0,1\O,0.0038743785,0.,0.0030280638\H,0.0019702677,0.,0.9624864603\
 H,0.9344536858,0.,-0.2306086314\\Version=EM64L-G09RevD.01\HF=-76.32371
 16\MP2=-76.4071855\RMSD=2.155e-09\RMSF=1.070e-05\Dipole=0.5970047,0.,0
 .466599\PG=CS [SG(H2O1)]\\@


 QUANTUM MECHANICS IS BOHRING -- M.S. GORDON
 Job cpu time:       0 days  0 hours  1 minutes 18.7 seconds.
 File lengths (MBytes):  RWF=      5 Int=      0 D2E=      0 Chk=      1 Scr=      1
 Normal termination of Gaussian 09 at Wed Aug 30 11:24:09 2017.
